# Solver information
# Time            	U_solver          	Ux_initial        	Ux_final          	Ux_iters          	Uy_initial        	Uy_final          	Uy_iters          	U_converged       	p_solver          	p_initial         	p_final           	p_iters           	p_converged       
0.000282972811245 	DILUPBiCGStab	2.0449224610e-03	3.3830672420e-11	2	6.1814442040e-02	1.9778193410e-11	3	false	GAMG	1.0000000000e+00	6.8377840570e-03	10	true
0.000622540184739 	DILUPBiCGStab	8.1599830560e-02	1.6763661400e-10	2	3.6020769580e-01	2.7229149630e-11	3	false	GAMG	3.5866987570e-01	2.6817179500e-03	7	true
0.00103002103293  	DILUPBiCGStab	9.2707284970e-02	4.2258195180e-10	2	4.4259123190e-01	8.9514309370e-11	3	false	GAMG	3.8351051850e-01	1.9592545270e-03	6	true
0.00151899805076  	DILUPBiCGStab	1.5645060470e-02	1.9867055940e-10	2	1.5231026980e-01	5.2837063620e-11	3	false	GAMG	5.9172371170e-01	4.3241683720e-03	7	true
0.00210577047216  	DILUPBiCGStab	1.4219201850e-02	1.5830888360e-10	2	5.8275820480e-02	5.0905303770e-11	3	false	GAMG	3.8962979820e-01	2.8134294020e-03	5	true
0.00280161457725  	DILUPBiCGStab	6.3411759550e-03	2.1641450710e-10	2	3.6963570090e-02	8.3024216980e-11	3	false	GAMG	2.8349269370e-01	2.1487494980e-03	5	true
0.00360722876769  	DILUPBiCGStab	3.3457158430e-03	3.1038132080e-10	2	2.9926716740e-02	1.3295252280e-10	3	false	GAMG	2.3761399160e-01	1.6676592360e-03	6	true
0.00452231311067  	DILUPBiCGStab	2.2439113100e-03	5.0275292010e-10	2	1.8677353480e-02	1.4683394960e-10	3	false	GAMG	1.2503505530e-01	1.0617008330e-03	4	true
0.00554616269922  	DILUPBiCGStab	1.7551514440e-03	7.4267193300e-10	2	1.3852329440e-02	1.4687609320e-10	3	false	GAMG	7.5886796080e-02	5.2718443260e-04	4	true
0.00663363063695  	DILUPBiCGStab	1.4974804170e-03	8.2042874430e-10	2	1.1480739900e-02	1.2920949510e-10	3	false	GAMG	5.5130488280e-02	4.2010621940e-04	4	true
0.00772625868345  	DILUPBiCGStab	1.2704431040e-03	6.7023303520e-10	2	9.6550250320e-03	9.6374685730e-11	3	false	GAMG	4.2557242890e-02	2.3940989960e-04	4	true
0.00882591994439  	DILUPBiCGStab	1.1138720740e-03	5.4673231230e-10	2	8.5150682100e-03	7.7622429150e-11	3	false	GAMG	3.3190044960e-02	1.8595122170e-04	4	true
0.00991756713149  	DILUPBiCGStab	9.8641272630e-04	4.2894724450e-10	2	7.6020763880e-03	5.8110525240e-11	3	false	GAMG	2.6356064500e-02	1.8485829690e-04	4	true
0.0110040061081   	DILUPBiCGStab	8.9040842980e-04	3.3828262720e-10	2	6.9822393450e-03	4.3961981600e-11	3	false	GAMG	2.1129002960e-02	1.6389799730e-04	4	true
0.0120872202349   	DILUPBiCGStab	8.1817230970e-04	2.7053838760e-10	2	6.5299785700e-03	3.5762440880e-11	3	false	GAMG	1.8826337830e-02	1.4774195610e-04	4	true
0.0131687708257   	DILUPBiCGStab	7.6462743900e-04	2.1930032220e-10	2	6.2510096450e-03	3.0581235090e-11	3	false	GAMG	1.6436164910e-02	1.3458516910e-04	4	true
0.0142497968369   	DILUPBiCGStab	7.2435563870e-04	1.8064443590e-10	2	6.0716543160e-03	2.6719469010e-11	3	false	GAMG	1.5180245850e-02	1.2134502530e-04	4	true
0.0153311149636   	DILUPBiCGStab	6.9095141970e-04	1.5147575850e-10	2	5.9292982030e-03	9.2267676450e-10	2	false	GAMG	1.3292812930e-02	1.1267500650e-04	4	true
0.0164132889183   	DILUPBiCGStab	6.6232147100e-04	1.2953712250e-10	2	5.8151599150e-03	8.3344341890e-10	2	false	GAMG	1.2171463260e-02	1.0634090650e-04	4	true
0.0174966865883   	DILUPBiCGStab	6.3780308870e-04	1.1287887900e-10	2	5.7161589070e-03	7.6238361670e-10	2	false	GAMG	1.1406964150e-02	9.9853807040e-05	4	true
0.018581528767    	DILUPBiCGStab	6.1748576470e-04	9.9983277040e-11	2	5.6398992030e-03	7.0107647410e-10	2	false	GAMG	1.0702405030e-02	9.5033168740e-05	4	true
0.0196679344674   	DILUPBiCGStab	6.0058893820e-04	8.9576110280e-11	2	5.5940628630e-03	6.5365532790e-10	2	false	GAMG	9.9834378520e-03	8.8321733690e-05	4	true
0.0207559557811   	DILUPBiCGStab	5.8562432160e-04	8.1206601770e-11	2	5.5593850440e-03	6.1169157220e-10	2	false	GAMG	9.4813137980e-03	8.5819629600e-05	4	true
0.0218456030272   	DILUPBiCGStab	5.7286212760e-04	7.4568119720e-11	2	5.5322761660e-03	5.7424068630e-10	2	false	GAMG	9.1569982880e-03	8.0634017440e-05	4	true
0.0229368626558   	DILUPBiCGStab	5.6238785350e-04	6.9296687730e-11	2	5.5208175440e-03	5.3842038140e-10	2	false	GAMG	8.8259748130e-03	8.1716758740e-05	4	true
0.0240297101176   	DILUPBiCGStab	5.5279595400e-04	6.5102743640e-11	2	5.5103851520e-03	5.0438926240e-10	2	false	GAMG	8.4494978320e-03	7.6943504590e-05	4	true
0.0251241157933   	DILUPBiCGStab	5.4442234830e-04	6.1825165770e-11	2	5.5021683340e-03	4.7203900400e-10	2	false	GAMG	8.0912954830e-03	7.3521035460e-05	4	true
0.0262200484229   	DILUPBiCGStab	5.3698044020e-04	5.8941564040e-11	2	5.4920414200e-03	4.4399764870e-10	2	false	GAMG	7.9320105940e-03	7.2454855660e-05	4	true
0.0273174761944   	DILUPBiCGStab	5.3001225330e-04	5.6442136430e-11	2	5.4849702930e-03	4.2046261920e-10	2	false	GAMG	7.7591444510e-03	7.1752842390e-05	4	true
0.0284163662894   	DILUPBiCGStab	5.2438771240e-04	5.4125133830e-11	2	5.4726636640e-03	4.0025933820e-10	2	false	GAMG	7.9996644830e-03	7.0615340580e-05	4	true
0.0295166853679   	DILUPBiCGStab	5.1998126490e-04	5.1823656950e-11	2	5.4741448010e-03	3.8122630380e-10	2	false	GAMG	8.5042621290e-03	7.4565557200e-05	4	true
0.0306183987033   	DILUPBiCGStab	5.1546301500e-04	4.9447176510e-11	2	5.4799214750e-03	3.6431512390e-10	2	false	GAMG	8.4997829030e-03	8.3246722470e-05	4	true
0.0317214663623   	DILUPBiCGStab	5.1134832420e-04	4.6873543040e-11	2	5.4796016510e-03	3.4663024780e-10	2	false	GAMG	7.7865438030e-03	7.3753021450e-05	4	true
0.0328258426114   	DILUPBiCGStab	5.0774669800e-04	4.4268316690e-11	2	5.4709371280e-03	3.3139891060e-10	2	false	GAMG	7.5597541950e-03	7.1150226890e-05	4	true
0.0339314797306   	DILUPBiCGStab	5.0491105240e-04	4.1719725490e-11	2	5.4578434910e-03	3.1743693120e-10	2	false	GAMG	7.2660427440e-03	6.9305268150e-05	4	true
0.0350383251745   	DILUPBiCGStab	5.0228061650e-04	3.9234840010e-11	2	5.4538466050e-03	3.0521313510e-10	2	false	GAMG	7.2360491870e-03	6.2955457960e-05	4	true
0.0361463210264   	DILUPBiCGStab	4.9995024920e-04	3.6768344750e-11	2	5.4579882380e-03	2.9454979840e-10	2	false	GAMG	7.4357296420e-03	6.0120611180e-05	4	true
0.0372554055388   	DILUPBiCGStab	4.9740412900e-04	3.4399606780e-11	2	5.4728284940e-03	2.8517157030e-10	2	false	GAMG	7.3004608660e-03	6.4613699520e-05	4	true
0.0383655135438   	DILUPBiCGStab	4.9633874900e-04	3.2197362820e-11	2	5.4799448980e-03	2.7466957170e-10	2	false	GAMG	6.9115059120e-03	6.5462765790e-05	4	true
0.0394765760764   	DILUPBiCGStab	4.9576446370e-04	9.8097574800e-10	2	5.4815127590e-03	2.6476438510e-10	2	false	GAMG	7.3597521720e-03	3.9902886910e-05	5	true
0.0405885265054   	DILUPBiCGStab	4.9546605130e-04	9.3494758270e-10	2	5.4858173510e-03	2.5538547970e-10	2	false	GAMG	7.9477760670e-03	5.7127740150e-05	5	true
0.0417012968078   	DILUPBiCGStab	4.9558815030e-04	8.9383754190e-10	2	5.4807691120e-03	2.4551198810e-10	2	false	GAMG	7.4336309040e-03	7.1454390570e-05	4	true
0.0428148287988   	DILUPBiCGStab	4.9573736170e-04	8.5426006140e-10	2	5.4731712380e-03	2.3557681820e-10	2	false	GAMG	7.6133659050e-03	6.7425283580e-05	4	true
0.0439290676125   	DILUPBiCGStab	4.9581336970e-04	8.1554727810e-10	2	5.4598452000e-03	2.2681501150e-10	2	false	GAMG	7.0172010020e-03	5.2558929950e-05	4	true
0.0450439611952   	DILUPBiCGStab	4.9570577700e-04	7.7989889650e-10	2	5.4568808100e-03	2.1793754920e-10	2	false	GAMG	7.4435535350e-03	6.0740084900e-05	4	true
0.0461594647489   	DILUPBiCGStab	4.9566156190e-04	7.4730428260e-10	2	5.4559731290e-03	2.0970132580e-10	2	false	GAMG	7.9422438310e-03	4.2889913080e-05	5	true
0.0472755398686   	DILUPBiCGStab	4.9678085600e-04	7.1660913580e-10	2	5.4284236050e-03	2.0021943960e-10	2	false	GAMG	7.5957530580e-03	6.5772058880e-05	4	true
0.0483921530282   	DILUPBiCGStab	4.9837553940e-04	6.8704140020e-10	2	5.4026874430e-03	1.9116390360e-10	2	false	GAMG	8.4124211630e-03	6.6365366860e-05	4	true
0.0495092881425   	DILUPBiCGStab	4.9809200450e-04	6.6290234330e-10	2	5.4471771510e-03	1.8348393200e-10	2	false	GAMG	6.7866862260e-03	6.1136956210e-05	4	true
0.0506269181619   	DILUPBiCGStab	4.9831809970e-04	6.3977619190e-10	2	5.4489976870e-03	1.7453137390e-10	2	false	GAMG	6.1891980820e-03	6.0832809980e-05	4	true
0.0517450247368   	DILUPBiCGStab	4.9909105920e-04	6.1809724850e-10	2	5.4361576310e-03	1.6539357520e-10	2	false	GAMG	6.1338654190e-03	3.2132739460e-05	5	true
0.0528635913232   	DILUPBiCGStab	5.0008242770e-04	5.9781582200e-10	2	5.4142823860e-03	1.5596319620e-10	2	false	GAMG	6.3152060070e-03	6.1989194070e-05	4	true
0.0539826050698   	DILUPBiCGStab	5.0099849230e-04	5.7858581070e-10	2	5.3858575360e-03	1.4654991070e-10	2	false	GAMG	6.0812510780e-03	5.6308710720e-05	4	true
0.0551020542671   	DILUPBiCGStab	5.0145773860e-04	5.6014445050e-10	2	5.3642638240e-03	1.3690106640e-10	2	false	GAMG	6.2584153250e-03	5.1095393380e-05	4	true
0.0562219300038   	DILUPBiCGStab	5.0143038920e-04	5.4259384340e-10	2	5.3469983380e-03	1.2791526160e-10	2	false	GAMG	6.9048570450e-03	3.6995035550e-05	5	true
0.0573422208317   	DILUPBiCGStab	5.0236910300e-04	5.2587809310e-10	2	5.3144095420e-03	1.1896021880e-10	2	false	GAMG	6.3103529500e-03	5.5732484490e-05	4	true
0.0584629184885   	DILUPBiCGStab	5.0285345420e-04	5.0908597460e-10	2	5.2834544410e-03	1.1067346450e-10	2	false	GAMG	6.4922724220e-03	5.8691577160e-05	4	true
0.0595840164051   	DILUPBiCGStab	5.0386170500e-04	4.9314235070e-10	2	5.2514167690e-03	1.0259977330e-10	2	false	GAMG	6.5035772250e-03	5.3135929300e-05	4	true
0.0607055039975   	DILUPBiCGStab	5.0482984640e-04	4.7780590920e-10	2	5.2211922980e-03	9.5972423830e-11	2	false	GAMG	6.7358719960e-03	5.3391103080e-05	4	true
0.0618273739466   	DILUPBiCGStab	5.0532408730e-04	4.6301542260e-10	2	5.1974700610e-03	9.1260038640e-11	2	false	GAMG	7.7741814790e-03	5.7319214880e-05	4	true
0.06294962036     	DILUPBiCGStab	5.0530763080e-04	4.4892880830e-10	2	5.1712311420e-03	8.8775747850e-11	2	false	GAMG	7.8571387490e-03	6.2488749280e-05	4	true
0.0640722448961   	DILUPBiCGStab	5.0532079430e-04	4.3652773950e-10	2	5.1990433690e-03	8.7273387000e-11	2	false	GAMG	6.5913759230e-03	5.4936149760e-05	4	true
0.065195227975    	DILUPBiCGStab	5.0508578950e-04	4.2430827870e-10	2	5.1817365580e-03	8.6347729870e-11	2	false	GAMG	6.4364694570e-03	5.5347670000e-05	4	true
0.0663185484611   	DILUPBiCGStab	5.0525742300e-04	4.1236000120e-10	2	5.1387823040e-03	8.5175868380e-11	2	false	GAMG	6.0005262160e-03	5.3077591510e-05	4	true
0.0674421900079   	DILUPBiCGStab	5.0556541400e-04	4.0007695850e-10	2	5.0999038930e-03	8.6112834890e-11	2	false	GAMG	5.9326652830e-03	5.0932208940e-05	4	true
0.0685661404044   	DILUPBiCGStab	5.0620888320e-04	3.8845030470e-10	2	5.0658293960e-03	8.5501636360e-11	2	false	GAMG	5.5990777000e-03	4.9049861970e-05	4	true
0.0696903865109   	DILUPBiCGStab	5.0668446300e-04	3.7675247830e-10	2	5.0379677280e-03	8.6157637980e-11	2	false	GAMG	5.6845828690e-03	4.6993088950e-05	4	true
0.0708149160602   	DILUPBiCGStab	5.0700207290e-04	3.6558164860e-10	2	5.0101058290e-03	8.5145747970e-11	2	false	GAMG	5.9227032320e-03	4.8753801690e-05	4	true
0.0719397158654   	DILUPBiCGStab	5.0706122420e-04	3.5494796200e-10	2	4.9802111940e-03	8.5573487460e-11	2	false	GAMG	6.1442094630e-03	4.6061018580e-05	4	true
0.0730647684325   	DILUPBiCGStab	5.0736403240e-04	3.4595149560e-10	2	4.9548646620e-03	8.4122225190e-11	2	false	GAMG	6.8070251360e-03	4.6577386090e-05	4	true
0.0741900591308   	DILUPBiCGStab	5.0792118970e-04	3.3627155030e-10	2	4.9132467510e-03	8.5256941490e-11	2	false	GAMG	6.6053304010e-03	4.9741614950e-05	4	true
0.0753155833457   	DILUPBiCGStab	5.0872214280e-04	3.2599954850e-10	2	4.8595438580e-03	8.5057577670e-11	2	false	GAMG	6.4499028990e-03	5.5644187950e-05	4	true
0.076441323383    	DILUPBiCGStab	5.0976392890e-04	3.1745900410e-10	2	4.8122657210e-03	8.6802062340e-11	2	false	GAMG	6.0239012230e-03	4.7455311820e-05	4	true
0.0775672579484   	DILUPBiCGStab	5.1014850380e-04	3.0951308630e-10	2	4.7684764610e-03	8.5008694760e-11	2	false	GAMG	7.1465328990e-03	4.9411395070e-05	4	true
0.0786933749345   	DILUPBiCGStab	5.0951567550e-04	3.0103149970e-10	2	4.7315217250e-03	8.5417043150e-11	2	false	GAMG	7.2661889890e-03	4.7766988910e-05	4	true
0.079819681489    	DILUPBiCGStab	5.0879419640e-04	2.9160651620e-10	2	4.7643388690e-03	8.7192059300e-11	2	false	GAMG	5.5694309690e-03	4.0909184370e-05	4	true
0.0809461558005   	DILUPBiCGStab	5.0791316490e-04	2.8517162760e-10	2	4.7444011120e-03	8.6119631980e-11	2	false	GAMG	5.3370818560e-03	3.9313149880e-05	4	true
0.0820727804707   	DILUPBiCGStab	5.0689697690e-04	2.7791958400e-10	2	4.7127347690e-03	8.4001109970e-11	2	false	GAMG	5.2570859610e-03	4.0737101500e-05	4	true
0.0831995428296   	DILUPBiCGStab	5.0581790600e-04	2.7131517510e-10	2	4.6769438200e-03	8.3336964000e-11	2	false	GAMG	5.1418441720e-03	3.8415053210e-05	4	true
0.084326434799    	DILUPBiCGStab	5.0486421010e-04	2.6454306210e-10	2	4.6416929540e-03	8.1617987050e-11	2	false	GAMG	5.2257855730e-03	3.9941846200e-05	4	true
0.0854534475538   	DILUPBiCGStab	5.0411173640e-04	2.5853939210e-10	2	4.6088202650e-03	8.1222199190e-11	2	false	GAMG	5.2439332700e-03	3.6339356570e-05	4	true
0.0865805723296   	DILUPBiCGStab	5.0371409500e-04	2.5196810310e-10	2	4.5801679840e-03	7.9354986950e-11	2	false	GAMG	5.1839950530e-03	3.4203324310e-05	4	true
0.0877078018237   	DILUPBiCGStab	5.0330581460e-04	2.4625612390e-10	2	4.5511188600e-03	7.8373093460e-11	2	false	GAMG	5.0166335140e-03	3.5148032110e-05	4	true
0.0888351265453   	DILUPBiCGStab	5.0271312480e-04	2.4042738640e-10	2	4.5224670410e-03	7.6529932980e-11	2	false	GAMG	4.9411587980e-03	3.6033317110e-05	4	true
0.0899625383561   	DILUPBiCGStab	5.0197661730e-04	2.3650793520e-10	2	4.4948232400e-03	7.5105255970e-11	2	false	GAMG	4.8395340780e-03	3.5754092960e-05	4	true
0.0910900297639   	DILUPBiCGStab	5.0126150720e-04	2.3100078620e-10	2	4.4635862940e-03	7.3901798360e-11	2	false	GAMG	4.8178635220e-03	3.4013944610e-05	4	true
0.0922175936429   	DILUPBiCGStab	5.0041843840e-04	2.2644334820e-10	2	4.4299233980e-03	7.2920878920e-11	2	false	GAMG	4.8922872180e-03	3.3761796610e-05	4	true
0.0933452232011   	DILUPBiCGStab	4.9949170730e-04	2.2059754640e-10	2	4.3928077790e-03	7.2328294350e-11	2	false	GAMG	5.1212484640e-03	3.3720146320e-05	4	true
0.0944729104602   	DILUPBiCGStab	4.9848913690e-04	2.1668573110e-10	2	4.3486184360e-03	7.0879617200e-11	2	false	GAMG	5.6829895380e-03	3.4986718200e-05	4	true
0.0956006467279   	DILUPBiCGStab	4.9770696420e-04	2.1148539340e-10	2	4.3007822810e-03	7.0373843020e-11	2	false	GAMG	5.8267209700e-03	3.1370120750e-05	4	true
0.0967284379018   	DILUPBiCGStab	4.9565483610e-04	2.0616268570e-10	2	4.2969484810e-03	7.0450164950e-11	2	false	GAMG	5.5500460080e-03	3.4199419500e-05	4	true
0.0978562788855   	DILUPBiCGStab	4.9414630600e-04	2.0099568440e-10	2	4.2859402920e-03	7.1013666400e-11	2	false	GAMG	5.0115763430e-03	3.4123857760e-05	4	true
0.0989841578915   	DILUPBiCGStab	4.9221011420e-04	1.9794397350e-10	2	4.2611884440e-03	6.9031169430e-11	2	false	GAMG	5.0353139060e-03	3.2062487060e-05	4	true
0.10011206858     	DILUPBiCGStab	4.9039902670e-04	1.9306320330e-10	2	4.2324275750e-03	6.8981419700e-11	2	false	GAMG	4.9420022610e-03	3.2674009870e-05	4	true
0.101240004823    	DILUPBiCGStab	4.8868281040e-04	1.9063259020e-10	2	4.2054737770e-03	6.7384533280e-11	2	false	GAMG	4.9932238680e-03	3.2462532120e-05	4	true
0.102367961379    	DILUPBiCGStab	4.8727339750e-04	1.8593094720e-10	2	4.1712782040e-03	6.7460307730e-11	2	false	GAMG	4.9442922940e-03	3.2244341200e-05	4	true
0.103495932419    	DILUPBiCGStab	4.8609080380e-04	1.8294378610e-10	2	4.1413988180e-03	6.5909241000e-11	2	false	GAMG	4.7882676700e-03	2.9769698550e-05	4	true
0.104623911617    	DILUPBiCGStab	4.8535996900e-04	1.7859679570e-10	2	4.1080766120e-03	6.6031320630e-11	2	false	GAMG	4.9630381840e-03	3.2239561090e-05	4	true
0.105751890787    	DILUPBiCGStab	4.8492319620e-04	1.7603159130e-10	2	4.0756574240e-03	6.6243860290e-11	2	false	GAMG	4.7359067090e-03	2.9162968590e-05	4	true
0.106879863754    	DILUPBiCGStab	4.8379768790e-04	1.7204554680e-10	2	4.0513984860e-03	6.5467227290e-11	2	false	GAMG	4.8998729100e-03	3.2184761240e-05	4	true
0.10800782895     	DILUPBiCGStab	4.8286063960e-04	1.6865679440e-10	2	4.0223983490e-03	6.3848950240e-11	2	false	GAMG	4.9758670270e-03	3.2890142150e-05	4	true
0.109135778124    	DILUPBiCGStab	4.8180644200e-04	1.6537113970e-10	2	3.9946714490e-03	6.4006759030e-11	2	false	GAMG	4.9992883280e-03	2.8420444540e-05	4	true
0.110263704098    	DILUPBiCGStab	4.8034684870e-04	1.6309668220e-10	2	3.9657858220e-03	6.2870745240e-11	2	false	GAMG	4.4500595760e-03	2.8302070910e-05	4	true
0.111391601789    	DILUPBiCGStab	4.7887584330e-04	1.5984922620e-10	2	3.9371671890e-03	6.1885643660e-11	2	false	GAMG	4.3928613640e-03	2.8537097390e-05	4	true
0.112519466478    	DILUPBiCGStab	4.7758089660e-04	1.5709868170e-10	2	3.9057586940e-03	6.0842206250e-11	2	false	GAMG	4.6157418420e-03	3.1270304330e-05	4	true
0.11364729078     	DILUPBiCGStab	4.7648481170e-04	1.5416357710e-10	2	3.8694253770e-03	5.9855916110e-11	2	false	GAMG	4.8831261260e-03	2.8042560190e-05	4	true
0.114775071643    	DILUPBiCGStab	4.7532461800e-04	1.5142869380e-10	2	3.8351080190e-03	5.9111280500e-11	2	false	GAMG	4.7522466380e-03	2.7479787490e-05	4	true
0.115902805746    	DILUPBiCGStab	4.7403935830e-04	1.4846013760e-10	2	3.8109843370e-03	5.8397493730e-11	2	false	GAMG	4.6956427220e-03	2.5010311400e-05	4	true
0.117030490959    	DILUPBiCGStab	4.7251816330e-04	1.4571939560e-10	2	3.7941020120e-03	5.7722979310e-11	2	false	GAMG	4.3763429750e-03	2.8271869190e-05	4	true
0.118158120081    	DILUPBiCGStab	4.7107788700e-04	1.4332203070e-10	2	3.7719209060e-03	5.7522448650e-11	2	false	GAMG	4.7946144670e-03	2.4175739040e-05	4	true
0.119285690177    	DILUPBiCGStab	4.6905261990e-04	1.4032595570e-10	2	3.7508937440e-03	5.5589348830e-11	2	false	GAMG	4.5149631600e-03	2.5238483500e-05	4	true
0.120413196713    	DILUPBiCGStab	4.6727848940e-04	1.3796541310e-10	2	3.7321637720e-03	5.4850955040e-11	2	false	GAMG	4.3351351530e-03	2.6531088170e-05	4	true
0.121540635813    	DILUPBiCGStab	4.6581926730e-04	1.3570928130e-10	2	3.7108249330e-03	5.4180890080e-11	2	false	GAMG	4.3289704670e-03	2.7578127030e-05	4	true
0.122668002571    	DILUPBiCGStab	4.6449156170e-04	1.3349772080e-10	2	3.6870129070e-03	5.3452216870e-11	2	false	GAMG	4.2147054060e-03	2.7473565750e-05	4	true
0.123795289725    	DILUPBiCGStab	4.6312786050e-04	1.3149833880e-10	2	3.6609566460e-03	5.2568100320e-11	2	false	GAMG	4.4622145100e-03	2.7852375500e-05	4	true
0.124922491861    	DILUPBiCGStab	4.6107586580e-04	1.2934022410e-10	2	3.6394674980e-03	5.1735824870e-11	2	false	GAMG	4.3122762690e-03	2.8203878450e-05	4	true
0.126049605092    	DILUPBiCGStab	4.5931756690e-04	1.2735455420e-10	2	3.6162704420e-03	5.1576928730e-11	2	false	GAMG	4.2068353980e-03	2.7667288460e-05	4	true
0.127176623085    	DILUPBiCGStab	4.5784143570e-04	1.2573333740e-10	2	3.5921487660e-03	5.1317955110e-11	2	false	GAMG	4.0957990440e-03	2.6145242260e-05	4	true
0.128303540833    	DILUPBiCGStab	4.5644204040e-04	1.2383478570e-10	2	3.5679380160e-03	5.0454141380e-11	2	false	GAMG	4.1136354680e-03	2.5413087270e-05	4	true
0.129430354825    	DILUPBiCGStab	4.5487764080e-04	1.2193371250e-10	2	3.5446896560e-03	4.9622126890e-11	2	false	GAMG	3.9322392450e-03	2.5663991330e-05	4	true
0.130557061241    	DILUPBiCGStab	4.5320828210e-04	1.1994926880e-10	2	3.5229817090e-03	4.8671016110e-11	2	false	GAMG	3.9937605290e-03	2.6181253360e-05	4	true
0.131683656036    	DILUPBiCGStab	4.5158525570e-04	1.1814908490e-10	2	3.5013369770e-03	4.7721812260e-11	2	false	GAMG	4.1619278730e-03	2.5781256690e-05	4	true
0.13281013742     	DILUPBiCGStab	4.4983899530e-04	1.1622936990e-10	2	3.4810662540e-03	4.6439392890e-11	2	false	GAMG	4.0413315920e-03	2.5223770820e-05	4	true
0.133936501071    	DILUPBiCGStab	4.4821680720e-04	1.1453789190e-10	2	3.4575938870e-03	4.5806192560e-11	2	false	GAMG	4.2533631640e-03	2.4876170330e-05	4	true
0.135062742349    	DILUPBiCGStab	4.4660172400e-04	1.1293199060e-10	2	3.4359013820e-03	4.5178641310e-11	2	false	GAMG	4.0729608350e-03	2.4739403960e-05	4	true
0.136188858712    	DILUPBiCGStab	4.4516964930e-04	1.1125653840e-10	2	3.4111189070e-03	4.4448483920e-11	2	false	GAMG	3.8241112660e-03	2.5127002290e-05	4	true
0.137314847664    	DILUPBiCGStab	4.4375024000e-04	1.0938861350e-10	2	3.3890066770e-03	4.3549801740e-11	2	false	GAMG	3.9849648120e-03	2.6249400520e-05	4	true
0.138440706192    	DILUPBiCGStab	4.4223997370e-04	1.0776731080e-10	2	3.3649255950e-03	4.2575802460e-11	2	false	GAMG	4.1915578760e-03	2.4356824620e-05	4	true
0.139566432619    	DILUPBiCGStab	4.4077220130e-04	1.0635218850e-10	2	3.3441088670e-03	4.2154033920e-11	2	false	GAMG	4.1323612160e-03	2.5069931110e-05	4	true
0.140692025715    	DILUPBiCGStab	4.3905799200e-04	1.0509012450e-10	2	3.3294252050e-03	4.1398769120e-11	2	false	GAMG	3.9375853130e-03	2.4548303490e-05	4	true
0.141817482797    	DILUPBiCGStab	4.3747297040e-04	1.0358451250e-10	2	3.3154854310e-03	4.0791898730e-11	2	false	GAMG	3.9069799080e-03	2.2815086660e-05	4	true
0.1429428033      	DILUPBiCGStab	4.3577527630e-04	1.0194316170e-10	2	3.3003952930e-03	4.0130961890e-11	2	false	GAMG	3.7503115840e-03	2.3591480850e-05	4	true
0.144067984996    	DILUPBiCGStab	4.3422476580e-04	1.0048573720e-10	2	3.2822277350e-03	3.9339943400e-11	2	false	GAMG	3.8112455180e-03	2.3347725690e-05	4	true
0.145193026064    	DILUPBiCGStab	4.3280096420e-04	9.9244937880e-11	2	3.2635126390e-03	3.8591258120e-11	2	false	GAMG	3.8070030370e-03	2.2913223080e-05	4	true
0.146317926376    	DILUPBiCGStab	4.3121201680e-04	9.7666623960e-11	2	3.2448837990e-03	3.7790491490e-11	2	false	GAMG	3.7085478870e-03	2.3216287380e-05	4	true
0.147442686297    	DILUPBiCGStab	4.2964903710e-04	9.6170175200e-11	2	3.2254536630e-03	3.6794917250e-11	2	false	GAMG	3.7010450540e-03	2.3703391610e-05	4	true
0.148567305305    	DILUPBiCGStab	4.2822828300e-04	9.4848584640e-11	2	3.2053878380e-03	3.5920396900e-11	2	false	GAMG	3.7716651150e-03	2.1117604580e-05	4	true
0.149691784754    	DILUPBiCGStab	4.2645045200e-04	9.3553262450e-11	2	3.1925000160e-03	3.5171957590e-11	2	false	GAMG	3.9027058120e-03	1.9339522010e-05	4	true
0.150816127021    	DILUPBiCGStab	4.2484589410e-04	9.2306944480e-11	2	3.1802897160e-03	3.4382349550e-11	2	false	GAMG	3.7209794600e-03	2.1179669470e-05	4	true
0.151940331884    	DILUPBiCGStab	4.2328671240e-04	9.0900228530e-11	2	3.1692856950e-03	3.3297307180e-11	2	false	GAMG	3.7665836940e-03	2.1693196390e-05	4	true
0.153064399222    	DILUPBiCGStab	4.2200158260e-04	8.9589771950e-11	2	3.1529117340e-03	3.2366023480e-11	2	false	GAMG	3.7539188270e-03	1.9507681890e-05	4	true
0.154188331283    	DILUPBiCGStab	4.2063555520e-04	8.8355088180e-11	2	3.1383464640e-03	3.1818978610e-11	2	false	GAMG	3.8570126760e-03	2.0816412890e-05	4	true
0.155312129227    	DILUPBiCGStab	4.1924619870e-04	8.7784619790e-11	2	3.1259962140e-03	3.1491745020e-11	2	false	GAMG	3.6975238930e-03	1.9448735180e-05	4	true
0.156435792911    	DILUPBiCGStab	4.1766424820e-04	8.6946028140e-11	2	3.1156726710e-03	3.0963559640e-11	2	false	GAMG	3.6924863920e-03	2.1126835660e-05	4	true
0.157559322648    	DILUPBiCGStab	4.1634034780e-04	8.5782514650e-11	2	3.0989810540e-03	3.0127558530e-11	2	false	GAMG	3.5218777920e-03	1.9621734710e-05	4	true
0.158682720902    	DILUPBiCGStab	4.1509951790e-04	8.4425374160e-11	2	3.0843733220e-03	2.9332788890e-11	2	false	GAMG	3.6349397310e-03	1.8899419850e-05	4	true
0.159805989736    	DILUPBiCGStab	4.1376006040e-04	8.3380132150e-11	2	3.0697575330e-03	2.8589580500e-11	2	false	GAMG	3.5919004470e-03	1.8887096590e-05	4	true
0.16092913085     	DILUPBiCGStab	4.1237649320e-04	8.2150945180e-11	2	3.0576719720e-03	2.7916944020e-11	2	false	GAMG	3.5295398050e-03	1.9093826220e-05	4	true
0.162052145707    	DILUPBiCGStab	4.1104101110e-04	8.1241764910e-11	2	3.0446907090e-03	2.7248508310e-11	2	false	GAMG	3.4283293250e-03	1.8297876940e-05	4	true
0.163175036639    	DILUPBiCGStab	4.0971778620e-04	8.0153855890e-11	2	3.0328551780e-03	2.6688644920e-11	2	false	GAMG	3.3422613060e-03	1.7595738570e-05	4	true
0.164297806217    	DILUPBiCGStab	4.0833607160e-04	7.9076824480e-11	2	3.0218543820e-03	2.5911554790e-11	2	false	GAMG	3.5061065510e-03	1.7380925680e-05	4	true
0.165420458766    	DILUPBiCGStab	4.0686688980e-04	7.7073221100e-11	2	3.0120273420e-03	2.4827756640e-11	2	false	GAMG	3.4731095490e-03	1.8131069680e-05	4	true
0.166542997991    	DILUPBiCGStab	4.0574620270e-04	7.5821913480e-11	2	2.9974077900e-03	2.4021395130e-11	2	false	GAMG	3.5419742150e-03	1.8104907430e-05	4	true
0.16766542793     	DILUPBiCGStab	4.0444686920e-04	7.4392748410e-11	2	2.9844773430e-03	2.3348386740e-11	2	false	GAMG	3.6434474310e-03	1.5874983630e-05	4	true
0.168787752187    	DILUPBiCGStab	4.0306560950e-04	7.3683999370e-11	2	2.9741334030e-03	2.2825653560e-11	2	false	GAMG	3.6473380450e-03	1.5211072900e-05	4	true
0.169909974886    	DILUPBiCGStab	4.0169210380e-04	7.2686153520e-11	2	2.9678439200e-03	2.2444436930e-11	2	false	GAMG	3.4781253980e-03	1.8269882590e-05	4	true
0.171032097948    	DILUPBiCGStab	4.0049837900e-04	7.1723673110e-11	2	2.9544942060e-03	2.1681423470e-11	2	false	GAMG	3.6455838710e-03	1.3220416690e-05	4	true
0.172154128898    	DILUPBiCGStab	3.9914968160e-04	7.0337651430e-11	2	2.9498477390e-03	2.1318916650e-11	2	false	GAMG	3.2983309700e-03	1.5103881890e-05	4	true
0.173276071051    	DILUPBiCGStab	3.9794302740e-04	6.9566394690e-11	2	2.9418830280e-03	2.0588148080e-11	2	false	GAMG	3.3437343980e-03	1.5214242290e-05	4	true
0.174397927819    	DILUPBiCGStab	3.9658945470e-04	6.8214663820e-11	2	2.9318974900e-03	2.0199704080e-11	2	false	GAMG	3.2427192310e-03	1.4980095130e-05	4	true
0.175519703801    	DILUPBiCGStab	3.9540635210e-04	6.7376997680e-11	2	2.9194726590e-03	1.9439438370e-11	2	false	GAMG	3.2221914760e-03	1.5293036110e-05	4	true
0.176641403509    	DILUPBiCGStab	3.9401161480e-04	6.5868712680e-11	2	2.9101453000e-03	1.9048504560e-11	2	false	GAMG	3.3392483920e-03	1.5065625800e-05	4	true
0.177763032253    	DILUPBiCGStab	3.9246565380e-04	6.5118924430e-11	2	2.9009672260e-03	1.8260703790e-11	2	false	GAMG	3.4287023550e-03	1.5469747030e-05	4	true
0.178884596034    	DILUPBiCGStab	3.9137688810e-04	6.3571230460e-11	2	2.8893195950e-03	1.8018800230e-11	2	false	GAMG	3.3067711180e-03	1.5126457630e-05	4	true
0.1800060996      	DILUPBiCGStab	3.9014662870e-04	6.3104895720e-11	2	2.8807658860e-03	1.7338158810e-11	2	false	GAMG	3.2851454950e-03	1.4420858950e-05	4	true
0.1811275477      	DILUPBiCGStab	3.8890910730e-04	6.1706434510e-11	2	2.8717564050e-03	1.7236841660e-11	2	false	GAMG	3.1295681380e-03	1.4606918100e-05	4	true
0.182248944868    	DILUPBiCGStab	3.8768039460e-04	6.1378362000e-11	2	2.8629904440e-03	1.6543869580e-11	2	false	GAMG	3.2503835920e-03	1.4253253460e-05	4	true
0.183370297006    	DILUPBiCGStab	3.8637637510e-04	5.9900196640e-11	2	2.8566315440e-03	1.6461343230e-11	2	false	GAMG	3.2653745670e-03	1.4398645350e-05	4	true
0.184491609942    	DILUPBiCGStab	3.8516093870e-04	5.9570551240e-11	2	2.8467287920e-03	1.5744643240e-11	2	false	GAMG	3.2094031270e-03	1.4821315730e-05	4	true
0.185612889273    	DILUPBiCGStab	3.8410480710e-04	5.8300863500e-11	2	2.8350819710e-03	1.5798577600e-11	2	false	GAMG	3.1126187630e-03	1.4580117260e-05	4	true
0.186734140203    	DILUPBiCGStab	3.8303529230e-04	5.8381626170e-11	2	2.8262781010e-03	1.5260287900e-11	2	false	GAMG	3.1029195670e-03	1.3801255700e-05	4	true
0.187855368307    	DILUPBiCGStab	3.8187609220e-04	5.7345170620e-11	2	2.8168960930e-03	1.5417324190e-11	2	false	GAMG	3.3793776180e-03	1.4604607200e-05	4	true
0.188976579528    	DILUPBiCGStab	3.8051351990e-04	5.7570247030e-11	2	2.8118014610e-03	1.5032591400e-11	2	false	GAMG	3.1531745590e-03	1.3744532080e-05	4	true
0.19009777858     	DILUPBiCGStab	3.7944509450e-04	5.6714343890e-11	2	2.8037897820e-03	1.5154554630e-11	2	false	GAMG	3.0878964050e-03	1.4268366710e-05	4	true
0.191218969437    	DILUPBiCGStab	3.7832940330e-04	5.7181082620e-11	2	2.7961012890e-03	1.4671967750e-11	2	false	GAMG	3.0521080520e-03	1.4266775050e-05	4	true
0.192340156471    	DILUPBiCGStab	3.7709554400e-04	5.6273743250e-11	2	2.7886399040e-03	1.4788417750e-11	2	false	GAMG	3.0337273230e-03	1.4486198410e-05	4	true
0.193461345257    	DILUPBiCGStab	3.7594682090e-04	5.6569254930e-11	2	2.7801669180e-03	1.4378391370e-11	2	false	GAMG	3.2587050060e-03	1.4219370070e-05	4	true
0.194582542008    	DILUPBiCGStab	3.7471525370e-04	5.5611321980e-11	2	2.7722888370e-03	1.4550238130e-11	2	false	GAMG	3.1760322430e-03	1.4233870680e-05	4	true
0.195703751691    	DILUPBiCGStab	3.7387325540e-04	5.5970984190e-11	2	2.7619054870e-03	1.4155009400e-11	2	false	GAMG	3.0223192880e-03	1.3874731360e-05	4	true
0.196824978906    	DILUPBiCGStab	3.7282322040e-04	5.5179283110e-11	2	2.7530073680e-03	1.4287379960e-11	2	false	GAMG	3.1935738000e-03	1.4385835270e-05	4	true
0.197946228948    	DILUPBiCGStab	3.7186105150e-04	5.5452536070e-11	2	2.7439007290e-03	1.4068052510e-11	2	false	GAMG	3.1411271200e-03	1.3995120760e-05	4	true
0.199067506332    	DILUPBiCGStab	3.7073992500e-04	5.4861122130e-11	2	2.7369267470e-03	1.4166769320e-11	2	false	GAMG	3.1643220790e-03	1.3841553170e-05	4	true
0.20018881493     	DILUPBiCGStab	3.6968531620e-04	5.5410667860e-11	2	2.7302557760e-03	1.3916713610e-11	2	false	GAMG	3.1061621760e-03	1.3940630350e-05	4	true
0.20131015946     	DILUPBiCGStab	3.6872876060e-04	5.4860979540e-11	2	2.7226377030e-03	1.4033464970e-11	2	false	GAMG	2.9570999610e-03	1.4040655690e-05	4	true
0.202431544326    	DILUPBiCGStab	3.6785780160e-04	5.5380868190e-11	2	2.7153027100e-03	1.3961495100e-11	2	false	GAMG	3.0526713580e-03	1.4555780140e-05	4	true
0.203552973315    	DILUPBiCGStab	3.6697673710e-04	5.5078962590e-11	2	2.7071883450e-03	1.4078284610e-11	2	false	GAMG	3.0373120940e-03	1.4231121870e-05	4	true
0.204674450673    	DILUPBiCGStab	3.6618138700e-04	5.5586606760e-11	2	2.6970445930e-03	1.4012529860e-11	2	false	GAMG	3.0359750670e-03	1.2949729700e-05	4	true
0.205795983205    	DILUPBiCGStab	3.6520042610e-04	5.5121297130e-11	2	2.6930257020e-03	1.4249340340e-11	2	false	GAMG	2.8943855750e-03	1.3618322960e-05	4	true
0.20691757388     	DILUPBiCGStab	3.6442782270e-04	5.5750211440e-11	2	2.6844341620e-03	1.4143617040e-11	2	false	GAMG	3.0163215930e-03	1.3853396080e-05	4	true