# Solver information
# Time            	U_solver          	Ux_initial        	Ux_final          	Ux_iters          	Uy_initial        	Uy_final          	Uy_iters          	U_converged       	p_solver          	p_initial         	p_final           	p_iters           	p_converged       
0.000133545270149 	DILUPBiCGStab	1.2144661160e-03	9.0987802850e-11	2	3.5653521080e-02	7.1450710100e-11	3	false	GAMG	1.0000000000e+00	8.9846998270e-03	10	true
0.000293799594329 	DILUPBiCGStab	7.2892960840e-02	4.6832532070e-10	2	3.6761246140e-01	7.6743053210e-11	3	false	GAMG	2.8159342930e-01	2.0155858470e-03	8	true
0.000479693759604 	DILUPBiCGStab	9.6243555480e-02	2.5404419240e-11	3	4.1177782890e-01	4.0845077600e-10	3	false	GAMG	3.4694763050e-01	2.9031831290e-03	7	true
0.000702766757934 	DILUPBiCGStab	4.6105734350e-02	4.0603580590e-10	2	1.3649231010e-01	1.8593649940e-10	3	false	GAMG	6.0343070570e-01	5.0913238080e-03	7	true
0.000964734141772 	DILUPBiCGStab	8.5737175570e-03	4.2531143970e-10	2	9.1198449360e-02	1.4871808450e-10	3	false	GAMG	6.6832558590e-01	5.5783342160e-03	5	true
0.00127294463975  	DILUPBiCGStab	5.9478593120e-03	4.4398320570e-10	2	6.1011613240e-02	2.0346226190e-10	3	false	GAMG	4.9396879380e-01	4.8493723470e-03	5	true
0.00162987227966  	DILUPBiCGStab	2.4459613030e-03	5.5290147500e-10	2	2.6657457650e-02	2.6318877630e-10	3	false	GAMG	3.7219530320e-01	2.5442270670e-03	5	true
0.00203555990905  	DILUPBiCGStab	1.6275741410e-03	7.0595671640e-10	2	1.7824412640e-02	3.0789969840e-10	3	false	GAMG	2.4010011240e-01	2.1772359990e-03	4	true
0.00249007766232  	DILUPBiCGStab	1.1746925070e-03	9.1940189050e-10	2	1.2732620570e-02	3.9333018630e-10	3	false	GAMG	1.7330177790e-01	1.6043889910e-03	4	true
0.00297893583654  	DILUPBiCGStab	9.4434267390e-04	5.1549985780e-11	3	1.0396154770e-02	4.4797920050e-10	3	false	GAMG	9.9156931410e-02	5.5805187650e-04	5	true
0.003469799718    	DILUPBiCGStab	7.9155606000e-04	8.7533632630e-10	2	8.2500015580e-03	3.6934765180e-10	3	false	GAMG	6.0344981900e-02	5.6896147640e-04	4	true
0.00396397261208  	DILUPBiCGStab	7.0188971860e-04	7.3690003470e-10	2	6.9111484580e-03	3.1051972540e-10	3	false	GAMG	4.3949797410e-02	4.3098643720e-04	4	true
0.00445816541276  	DILUPBiCGStab	6.3389503890e-04	6.1811389070e-10	2	6.0636021610e-03	2.6068426440e-10	3	false	GAMG	3.1929083040e-02	3.1375708380e-04	4	true
0.00495272279242  	DILUPBiCGStab	5.8490500690e-04	5.2813953100e-10	2	5.5210164070e-03	2.2116179130e-10	3	false	GAMG	2.5981545680e-02	2.5893294800e-04	4	true
0.00544847309978  	DILUPBiCGStab	5.4597771400e-04	4.6121013510e-10	2	5.1066523670e-03	1.9173355450e-10	3	false	GAMG	2.2396364430e-02	1.0860910620e-04	5	true
0.00594591924098  	DILUPBiCGStab	5.1498494970e-04	4.0871996130e-10	2	4.7748992920e-03	1.6909317870e-10	3	false	GAMG	1.9679536710e-02	1.9520865530e-04	4	true
0.00644539748666  	DILUPBiCGStab	4.8958744510e-04	3.6587270290e-10	2	4.5119399690e-03	1.5197264470e-10	3	false	GAMG	1.7716051350e-02	1.7043967630e-04	4	true
0.00694715403909  	DILUPBiCGStab	4.6910038880e-04	3.3055495020e-10	2	4.3018889730e-03	1.3858466880e-10	3	false	GAMG	1.6606323420e-02	1.5476247750e-04	4	true
0.00745138140218  	DILUPBiCGStab	4.5121023110e-04	3.0065883020e-10	2	4.1337283920e-03	1.2815446420e-10	3	false	GAMG	1.5558011920e-02	1.4613599250e-04	4	true
0.00795791239747  	DILUPBiCGStab	4.3603931790e-04	2.7446170340e-10	2	3.9827532720e-03	1.1939288220e-10	3	false	GAMG	1.5327658700e-02	1.3665745840e-04	4	true
0.00846659184714  	DILUPBiCGStab	4.2182783090e-04	2.5096763550e-10	2	3.8507441410e-03	1.1191115170e-10	3	false	GAMG	1.5002214940e-02	1.3247059880e-04	4	true
0.00897747868985  	DILUPBiCGStab	4.0997671250e-04	2.3023399240e-10	2	3.7323875380e-03	1.0557187940e-10	3	false	GAMG	1.5377249570e-02	1.2433964970e-04	4	true
0.00949060577398  	DILUPBiCGStab	3.9846365920e-04	2.1188066550e-10	2	3.6435480730e-03	1.0018170250e-10	3	false	GAMG	1.5290436040e-02	1.2253419420e-04	4	true
0.0100059874336   	DILUPBiCGStab	3.8839278420e-04	1.9680581090e-10	2	3.5650049140e-03	9.5367276500e-11	3	false	GAMG	1.6033424970e-02	1.1653401760e-04	4	true
0.0105236224777   	DILUPBiCGStab	3.7846757470e-04	1.8543472230e-10	2	3.4993451090e-03	9.1138089970e-11	3	false	GAMG	1.6529354860e-02	1.1293937620e-04	4	true
0.0110434983773   	DILUPBiCGStab	3.6932992600e-04	1.7846084970e-10	2	3.4394767660e-03	8.7200056400e-11	3	false	GAMG	1.7216170570e-02	1.1113330630e-04	4	true
0.0115655034086   	DILUPBiCGStab	3.6031525920e-04	1.7433749280e-10	2	3.3922320690e-03	8.3551858640e-11	3	false	GAMG	1.7721396450e-02	1.0594629890e-04	4	true
0.0120895515037   	DILUPBiCGStab	3.5209840170e-04	1.7175669640e-10	2	3.3506321360e-03	8.0058578550e-11	3	false	GAMG	1.8420590530e-02	1.0478063420e-04	4	true
0.0126156092871   	DILUPBiCGStab	3.4422806560e-04	1.6981313920e-10	2	3.3180160890e-03	7.6832259930e-11	3	false	GAMG	1.9005399300e-02	1.0011365750e-04	4	true
0.0131436460979   	DILUPBiCGStab	3.3674452580e-04	1.6838502900e-10	2	3.2938845480e-03	7.3770173390e-11	3	false	GAMG	1.9669135000e-02	1.9391257500e-04	3	true
0.0136736353551   	DILUPBiCGStab	3.2980264860e-04	1.6690394050e-10	2	3.2677086510e-03	7.0967261630e-11	3	false	GAMG	2.0127653360e-02	1.8668524770e-04	3	true
0.0142055512523   	DILUPBiCGStab	3.2309556770e-04	1.6526704280e-10	2	3.2478157030e-03	6.8375546210e-11	3	false	GAMG	2.0810050800e-02	1.8289213430e-04	3	true
0.0147393677243   	DILUPBiCGStab	3.1690634600e-04	1.6324438400e-10	2	3.2273023770e-03	6.6033298810e-11	3	false	GAMG	2.1297729900e-02	1.7623311220e-04	3	true
0.0152750565265   	DILUPBiCGStab	3.1068607930e-04	1.6101308030e-10	2	3.2125089450e-03	6.3977862770e-11	3	false	GAMG	2.1899541780e-02	1.7327774270e-04	3	true
0.0158125850572   	DILUPBiCGStab	3.0498655990e-04	1.5834337210e-10	2	3.1995797080e-03	6.2170285390e-11	3	false	GAMG	2.2354653760e-02	1.7046694110e-04	3	true
0.0163519155231   	DILUPBiCGStab	2.9927748050e-04	1.5542670150e-10	2	3.1915086240e-03	6.0558092860e-11	3	false	GAMG	2.2753368290e-02	1.6692824830e-04	3	true
0.0168930036636   	DILUPBiCGStab	2.9407612690e-04	1.5199632640e-10	2	3.1846441540e-03	5.9062953140e-11	3	false	GAMG	2.3236436280e-02	1.6623002960e-04	3	true
0.0174357987131   	DILUPBiCGStab	2.8881379650e-04	1.4844555750e-10	2	3.1806970590e-03	5.7663244310e-11	3	false	GAMG	2.3668983240e-02	1.6085237040e-04	3	true
0.0179802435061   	DILUPBiCGStab	2.8409134900e-04	1.4454434410e-10	2	3.1766345800e-03	5.6308660040e-11	3	false	GAMG	2.4163680230e-02	1.5979376900e-04	3	true
0.0185262765578   	DILUPBiCGStab	2.7925799260e-04	1.4057123520e-10	2	3.1735553520e-03	5.5021102690e-11	3	false	GAMG	2.4635833000e-02	1.5612986810e-04	3	true
0.0190738335244   	DILUPBiCGStab	2.7490737140e-04	1.3634514150e-10	2	3.1691855700e-03	5.3778479280e-11	3	false	GAMG	2.5079243480e-02	1.5665971640e-04	3	true
0.0196228278625   	DILUPBiCGStab	2.7048432220e-04	1.3214976850e-10	2	3.1693719700e-03	5.2567625590e-11	3	false	GAMG	2.5529448400e-02	1.5278944730e-04	3	true
0.020173181695    	DILUPBiCGStab	2.6655258480e-04	1.2780285520e-10	2	3.1684993910e-03	5.1325781320e-11	3	false	GAMG	2.5983380900e-02	1.5372284750e-04	3	true
0.0207248540827   	DILUPBiCGStab	2.6252577790e-04	1.2364159380e-10	2	3.1722305690e-03	5.0151385720e-11	3	false	GAMG	2.6521726960e-02	1.4860520910e-04	3	true
0.0212778063649   	DILUPBiCGStab	2.5904122830e-04	1.1945262260e-10	2	3.1710073790e-03	4.8908274820e-11	3	false	GAMG	2.6881115090e-02	1.4677727350e-04	3	true
0.0218320027129   	DILUPBiCGStab	2.5545304890e-04	1.1527344870e-10	2	3.1732400900e-03	4.7826195450e-11	3	false	GAMG	2.7346152580e-02	1.4512019230e-04	3	true
0.0223874100756   	DILUPBiCGStab	2.5233348740e-04	1.1104171280e-10	2	3.1744786630e-03	4.6748910740e-11	3	false	GAMG	2.7771839720e-02	1.4347741590e-04	3	true
0.0229439655918   	DILUPBiCGStab	2.4914118390e-04	1.0713282070e-10	2	3.1783570330e-03	4.5622444010e-11	3	false	GAMG	2.8163373560e-02	1.4010287150e-04	3	true
0.0235016247308   	DILUPBiCGStab	2.4640734200e-04	1.0320340240e-10	2	3.1779561500e-03	4.4499706360e-11	3	false	GAMG	2.8509910030e-02	1.4267553520e-04	3	true
0.0240603601629   	DILUPBiCGStab	2.4361574780e-04	9.9478283830e-11	2	3.1805241710e-03	4.3438104740e-11	3	false	GAMG	2.8977790880e-02	1.3978450280e-04	3	true
0.0246201497226   	DILUPBiCGStab	2.4128307320e-04	9.5769708660e-11	2	3.1827180180e-03	4.2279610220e-11	3	false	GAMG	2.9201458130e-02	1.3853373930e-04	3	true
0.0251809752044   	DILUPBiCGStab	2.3874058350e-04	9.2133328870e-11	2	3.1879496970e-03	4.1328166110e-11	3	false	GAMG	2.9568901390e-02	1.3629466270e-04	3	true
0.0257428214977   	DILUPBiCGStab	2.3675851770e-04	8.8632883200e-11	2	3.1926449020e-03	4.0353239120e-11	3	false	GAMG	2.9824949420e-02	1.3555818040e-04	3	true
0.0263056757193   	DILUPBiCGStab	2.3463888430e-04	8.5302768000e-11	2	3.1969369680e-03	9.8141004060e-10	2	false	GAMG	3.0138639740e-02	1.3591319010e-04	3	true
0.0268695258828   	DILUPBiCGStab	2.3298367200e-04	8.2006192080e-11	2	3.2027807500e-03	9.5225101780e-10	2	false	GAMG	3.0455819960e-02	1.3367203100e-04	3	true
0.0274343609025   	DILUPBiCGStab	2.3106272730e-04	7.8797562220e-11	2	3.2070091420e-03	9.2318799280e-10	2	false	GAMG	3.0472184890e-02	1.3426072880e-04	3	true
0.0280001686537   	DILUPBiCGStab	2.2966570770e-04	7.5768951980e-11	2	3.2128653600e-03	8.9483222830e-10	2	false	GAMG	3.0648638400e-02	1.3174250220e-04	3	true
0.0285669363541   	DILUPBiCGStab	2.2801933130e-04	7.3027919920e-11	2	3.2174323900e-03	8.6480403890e-10	2	false	GAMG	3.0791778340e-02	1.3314836590e-04	3	true
0.0291346495613   	DILUPBiCGStab	2.2690822980e-04	7.0286856900e-11	2	3.2244962870e-03	8.3768531320e-10	2	false	GAMG	3.0943242590e-02	1.2987584090e-04	3	true
0.0297032920815   	DILUPBiCGStab	2.2541262640e-04	6.7715588150e-11	2	3.2278949350e-03	8.1293806120e-10	2	false	GAMG	3.1067830150e-02	1.3019254640e-04	3	true
0.0302728462269   	DILUPBiCGStab	2.2436802680e-04	6.5161499940e-11	2	3.2356527580e-03	7.9018885330e-10	2	false	GAMG	3.1132707740e-02	1.2845063900e-04	3	true
0.0308432926251   	DILUPBiCGStab	2.2315452880e-04	6.2676906310e-11	2	3.2338421620e-03	7.6332609500e-10	2	false	GAMG	3.1122325860e-02	1.3030099580e-04	3	true
0.0314146112506   	DILUPBiCGStab	2.2244422490e-04	6.0337793180e-11	2	3.2387091930e-03	7.3738003030e-10	2	false	GAMG	3.1002332180e-02	1.2586948790e-04	3	true
0.0319867807853   	DILUPBiCGStab	2.2139369410e-04	5.8265321620e-11	2	3.2411892520e-03	7.1675343040e-10	2	false	GAMG	3.0745280210e-02	1.2704553520e-04	3	true
0.032559779126    	DILUPBiCGStab	2.2073918010e-04	5.6233439530e-11	2	3.2468146950e-03	6.9665838600e-10	2	false	GAMG	3.0529597500e-02	1.2552960570e-04	3	true
0.03313358317     	DILUPBiCGStab	2.1988486140e-04	5.4182267710e-11	2	3.2474011540e-03	6.8077834430e-10	2	false	GAMG	3.0321752620e-02	1.2420708800e-04	3	true
0.0337081699112   	DILUPBiCGStab	2.1932852840e-04	5.2328659740e-11	2	3.2532724530e-03	6.6245047640e-10	2	false	GAMG	3.0047974880e-02	1.2552311830e-04	3	true
0.0342835165515   	DILUPBiCGStab	2.1870882940e-04	5.0719493580e-11	2	3.2542593540e-03	6.4278959940e-10	2	false	GAMG	2.9816816480e-02	1.2465678970e-04	3	true
0.0348596004659   	DILUPBiCGStab	2.1830147660e-04	4.9133773470e-11	2	3.2582945830e-03	6.2244139410e-10	2	false	GAMG	2.9425238660e-02	1.1990381760e-04	3	true
0.0354363993584   	DILUPBiCGStab	2.1769005070e-04	4.7511778070e-11	2	3.2592410730e-03	6.0524748620e-10	2	false	GAMG	2.8956227760e-02	1.2171126120e-04	3	true
0.036013892048    	DILUPBiCGStab	2.1723528270e-04	4.5904617550e-11	2	3.2647279080e-03	5.8813223790e-10	2	false	GAMG	2.8534140840e-02	1.1909847100e-04	3	true
0.0365920580956   	DILUPBiCGStab	2.1678435010e-04	4.4480920490e-11	2	3.2658833940e-03	5.7286435000e-10	2	false	GAMG	2.8225326150e-02	1.2372647080e-04	3	true
0.0371708783241   	DILUPBiCGStab	2.1644231180e-04	4.3049709320e-11	2	3.2691438640e-03	5.5679535320e-10	2	false	GAMG	2.7914371210e-02	1.1690319970e-04	3	true
0.0377503349086   	DILUPBiCGStab	2.1608505830e-04	4.1886257140e-11	2	3.2749636910e-03	5.4390994580e-10	2	false	GAMG	2.7001140470e-02	1.1955184570e-04	3	true
0.0383304108427   	DILUPBiCGStab	2.1575440990e-04	4.0695645460e-11	2	3.2771354570e-03	5.2948839130e-10	2	false	GAMG	2.6500498810e-02	1.1419868430e-04	3	true
0.0389110904956   	DILUPBiCGStab	2.1548124440e-04	9.9049839070e-10	2	3.2807774200e-03	5.1745433370e-10	2	false	GAMG	2.5765648640e-02	1.1627021550e-04	3	true
0.0394923585688   	DILUPBiCGStab	2.1518854940e-04	9.7010851880e-10	2	3.2799514450e-03	5.0285209870e-10	2	false	GAMG	2.5325324910e-02	1.1324042880e-04	3	true
0.0400742017734   	DILUPBiCGStab	2.1499471570e-04	9.5098601610e-10	2	3.2867213930e-03	4.9125444200e-10	2	false	GAMG	2.4448011480e-02	1.1398013030e-04	3	true
0.0406566074134   	DILUPBiCGStab	2.1477271330e-04	9.3296684340e-10	2	3.2878603030e-03	4.7799216340e-10	2	false	GAMG	2.3622751610e-02	1.1240962130e-04	3	true
0.0412395632803   	DILUPBiCGStab	2.1468268510e-04	9.1489015280e-10	2	3.2865974000e-03	4.6560824490e-10	2	false	GAMG	2.2766490170e-02	1.0978965820e-04	3	true
0.0418230582887   	DILUPBiCGStab	2.1450823270e-04	8.9745175830e-10	2	3.2884779070e-03	4.5239746400e-10	2	false	GAMG	2.2004082440e-02	1.0953453990e-04	3	true
0.0424070819395   	DILUPBiCGStab	2.1445739810e-04	8.8040874370e-10	2	3.2863026020e-03	4.4037191940e-10	2	false	GAMG	2.1284500540e-02	1.0947619440e-04	3	true
0.0429916245178   	DILUPBiCGStab	2.1440345780e-04	8.6496310220e-10	2	3.2889734280e-03	4.2891616170e-10	2	false	GAMG	2.0747557960e-02	1.0965560700e-04	3	true
0.043576676649    	DILUPBiCGStab	2.1444498760e-04	8.4892612990e-10	2	3.2845160110e-03	4.2009072700e-10	2	false	GAMG	2.0012140060e-02	1.0397677590e-04	3	true
0.0441622304236   	DILUPBiCGStab	2.1440790980e-04	8.3352049310e-10	2	3.2911777300e-03	4.1022677170e-10	2	false	GAMG	1.9162056100e-02	1.0618495810e-04	3	true
0.0447482774807   	DILUPBiCGStab	2.1452417240e-04	8.1863246600e-10	2	3.2888366250e-03	4.0140180020e-10	2	false	GAMG	1.8101227020e-02	1.0281243440e-04	3	true
0.0453348104603   	DILUPBiCGStab	2.1456325160e-04	8.0542464930e-10	2	3.2926497940e-03	3.9227032010e-10	2	false	GAMG	1.7285959250e-02	1.0165668010e-04	3	true
0.0459218217404   	DILUPBiCGStab	2.1459017030e-04	7.9174424780e-10	2	3.2927612320e-03	3.8391041080e-10	2	false	GAMG	1.6260114700e-02	9.8543907110e-05	3	true
0.0465093040564   	DILUPBiCGStab	2.1467572180e-04	7.7847467730e-10	2	3.2930311450e-03	3.7374899980e-10	2	false	GAMG	1.5350419850e-02	9.7913058340e-05	3	true
0.0470972509133   	DILUPBiCGStab	2.1472494990e-04	7.6652665230e-10	2	3.2972137670e-03	3.6720355430e-10	2	false	GAMG	1.4152892200e-02	9.6002384670e-05	3	true
0.0476856552438   	DILUPBiCGStab	2.1477542880e-04	7.5418394640e-10	2	3.2978606560e-03	3.5788040970e-10	2	false	GAMG	1.3274929480e-02	9.4881157990e-05	3	true
0.0482745101365   	DILUPBiCGStab	2.1503686830e-04	7.4052513680e-10	2	3.2946506180e-03	3.5079987400e-10	2	false	GAMG	1.2122445680e-02	9.0151078760e-05	3	true
0.0488638089331   	DILUPBiCGStab	2.1508966480e-04	7.2845860100e-10	2	3.2939936950e-03	3.4146886020e-10	2	false	GAMG	1.1252011270e-02	8.7767397450e-05	3	true
0.0494535454696   	DILUPBiCGStab	2.1531892620e-04	7.1637069890e-10	2	3.2897254180e-03	3.3389637200e-10	2	false	GAMG	1.0640129890e-02	8.7230427570e-05	3	true
0.0500437132785   	DILUPBiCGStab	2.1541869930e-04	7.0532189310e-10	2	3.2868517880e-03	3.2500629900e-10	2	false	GAMG	9.9788366630e-03	8.7088315280e-05	3	true
0.0506343068804   	DILUPBiCGStab	2.1569185750e-04	6.9414631480e-10	2	3.2845317250e-03	3.1894761360e-10	2	false	GAMG	9.2318707250e-03	8.3806215390e-05	3	true
0.0512253203676   	DILUPBiCGStab	2.1573287560e-04	6.8376960980e-10	2	3.2877991820e-03	3.1138431820e-10	2	false	GAMG	8.4788732180e-03	8.1611832500e-05	3	true
0.0518167483905   	DILUPBiCGStab	2.1593959410e-04	6.7323705470e-10	2	3.2858694620e-03	3.0564279850e-10	2	false	GAMG	7.8231477600e-03	3.8017529980e-05	4	true
0.0524085851473   	DILUPBiCGStab	2.1599572090e-04	6.6387440370e-10	2	3.2867958350e-03	2.9848532230e-10	2	false	GAMG	7.2833049120e-03	4.0113341710e-05	4	true
0.0530008252024   	DILUPBiCGStab	2.1622498900e-04	6.5423660330e-10	2	3.2845159060e-03	2.9292789100e-10	2	false	GAMG	6.7994995240e-03	3.8795332400e-05	4	true
0.0535934631119   	DILUPBiCGStab	2.1636154530e-04	6.4547103510e-10	2	3.2844380850e-03	2.8635958130e-10	2	false	GAMG	6.3870567070e-03	4.0436021570e-05	4	true
0.0541864939016   	DILUPBiCGStab	2.1660005810e-04	6.3619719770e-10	2	3.2815791180e-03	2.8164444130e-10	2	false	GAMG	5.9546973150e-03	3.8454239250e-05	4	true
0.054779911657    	DILUPBiCGStab	2.1674951000e-04	6.2792920630e-10	2	3.2816116150e-03	2.7564107850e-10	2	false	GAMG	5.6938954460e-03	3.9508923690e-05	4	true
0.0553737112043   	DILUPBiCGStab	2.1696905760e-04	6.1903221610e-10	2	3.2768675350e-03	2.7073193610e-10	2	false	GAMG	5.4487817980e-03	3.8151495390e-05	4	true
0.0559678872131   	DILUPBiCGStab	2.1716597000e-04	6.1130659210e-10	2	3.2742558200e-03	2.6433902640e-10	2	false	GAMG	5.3267927830e-03	3.9224660550e-05	4	true
0.0565624342206   	DILUPBiCGStab	2.1744424010e-04	6.0323186780e-10	2	3.2669219920e-03	2.5940903220e-10	2	false	GAMG	5.2322024760e-03	3.6567207920e-05	4	true
0.0571573477033   	DILUPBiCGStab	2.1762883460e-04	5.9686748320e-10	2	3.2673703040e-03	2.5418745380e-10	2	false	GAMG	5.1028145980e-03	3.8397715420e-05	4	true
0.0577526227087   	DILUPBiCGStab	2.1786839540e-04	5.9068570600e-10	2	3.2616933880e-03	2.4998445460e-10	2	false	GAMG	5.0695272710e-03	3.7256282710e-05	4	true
0.0583482551041   	DILUPBiCGStab	2.1801673250e-04	5.8581301310e-10	2	3.2603425110e-03	2.4477114840e-10	2	false	GAMG	5.0154604250e-03	3.7749287420e-05	4	true
0.0589442398124   	DILUPBiCGStab	2.1831967180e-04	5.8122268520e-10	2	3.2538068880e-03	2.4143837000e-10	2	false	GAMG	4.9817535400e-03	3.5625081840e-05	4	true
0.0595405727545   	DILUPBiCGStab	2.1840725560e-04	5.7783620170e-10	2	3.2544996290e-03	2.3787257060e-10	2	false	GAMG	4.9362312000e-03	3.6203991000e-05	4	true
0.0601372487585   	DILUPBiCGStab	2.1862384720e-04	5.7440914070e-10	2	3.2491109800e-03	2.3558968400e-10	2	false	GAMG	4.8884979540e-03	3.5890338260e-05	4	true
0.060734264068    	DILUPBiCGStab	2.1876540510e-04	5.7119312730e-10	2	3.2481141580e-03	2.3317707010e-10	2	false	GAMG	4.7110655380e-03	3.6776310270e-05	4	true
0.0613316146328   	DILUPBiCGStab	2.1901262730e-04	5.6746572430e-10	2	3.2421454720e-03	2.3144386270e-10	2	false	GAMG	4.6653860680e-03	3.5936226470e-05	4	true
0.0619292957752   	DILUPBiCGStab	2.1910287590e-04	5.6505407900e-10	2	3.2398424050e-03	2.2893200750e-10	2	false	GAMG	4.5264448630e-03	3.6269856860e-05	4	true
0.0625273034062   	DILUPBiCGStab	2.1925183090e-04	5.6133239670e-10	2	3.2341665230e-03	2.2709224660e-10	2	false	GAMG	4.5733579480e-03	3.4799894670e-05	4	true
0.0631256327804   	DILUPBiCGStab	2.1932632550e-04	5.5897662560e-10	2	3.2287322540e-03	2.2478041980e-10	2	false	GAMG	4.5674440310e-03	3.4825676120e-05	4	true
0.0637242804185   	DILUPBiCGStab	2.1949537190e-04	5.5525892320e-10	2	3.2253804040e-03	2.2377941320e-10	2	false	GAMG	4.5587531650e-03	3.4374908190e-05	4	true
0.0643232417889   	DILUPBiCGStab	2.1963909380e-04	5.5345664410e-10	2	3.2204342400e-03	2.2264233270e-10	2	false	GAMG	4.5349251280e-03	3.4688750370e-05	4	true
0.0649225132834   	DILUPBiCGStab	2.1987903550e-04	5.5006265880e-10	2	3.2154117150e-03	2.2234187890e-10	2	false	GAMG	4.5248504270e-03	3.3372216030e-05	4	true
0.065522090846    	DILUPBiCGStab	2.2004022340e-04	5.4808803320e-10	2	3.2116719440e-03	2.2216783290e-10	2	false	GAMG	4.5112689660e-03	3.3966023830e-05	4	true
0.066121970624    	DILUPBiCGStab	2.2027661790e-04	5.4493409210e-10	2	3.2042310880e-03	2.2188127560e-10	2	false	GAMG	4.6042952130e-03	3.2361354040e-05	4	true
0.0667221489909   	DILUPBiCGStab	2.2040075470e-04	5.4288017030e-10	2	3.2017056540e-03	2.2222018090e-10	2	false	GAMG	4.5722030930e-03	3.3401776430e-05	4	true
0.0673226220264   	DILUPBiCGStab	2.2058942600e-04	5.4001483810e-10	2	3.1949063300e-03	2.2208052520e-10	2	false	GAMG	4.5998998150e-03	3.1769617420e-05	4	true
0.0679233863165   	DILUPBiCGStab	2.2066260920e-04	5.3799182180e-10	2	3.1927399520e-03	2.2294307010e-10	2	false	GAMG	4.5850317040e-03	3.2791310740e-05	4	true
0.068524437919    	DILUPBiCGStab	2.2083459420e-04	5.3482979920e-10	2	3.1857849720e-03	2.2284895810e-10	2	false	GAMG	4.6647902000e-03	3.2309554840e-05	4	true
0.0691257737479   	DILUPBiCGStab	2.2096679960e-04	5.3264541660e-10	2	3.1807184230e-03	2.2435764470e-10	2	false	GAMG	4.5932301750e-03	3.3275115270e-05	4	true
0.0697273899328   	DILUPBiCGStab	2.2110224290e-04	5.2911057660e-10	2	3.1710977910e-03	2.2432084770e-10	2	false	GAMG	4.5807621470e-03	3.0726702590e-05	4	true
0.0703292827532   	DILUPBiCGStab	2.2114905540e-04	5.2698393400e-10	2	3.1670081280e-03	2.2609163920e-10	2	false	GAMG	4.5209733060e-03	3.2158652590e-05	4	true
0.0709314486296   	DILUPBiCGStab	2.2123263680e-04	5.2341160130e-10	2	3.1592197880e-03	2.2623605310e-10	2	false	GAMG	4.6313303700e-03	3.0974408910e-05	4	true
0.0715338836412   	DILUPBiCGStab	2.2126330010e-04	5.2163533150e-10	2	3.1495349360e-03	2.2853428360e-10	2	false	GAMG	4.6481787030e-03	3.0304722340e-05	4	true
0.0721365847237   	DILUPBiCGStab	2.2130198010e-04	5.1731251060e-10	2	3.1449789320e-03	2.2868983850e-10	2	false	GAMG	4.4935002830e-03	3.0890386590e-05	4	true
0.0727395486226   	DILUPBiCGStab	2.2136154110e-04	5.1568651960e-10	2	3.1384136780e-03	2.3151403620e-10	2	false	GAMG	4.5512853460e-03	3.1001389430e-05	4	true
0.0733427715407   	DILUPBiCGStab	2.2148226000e-04	5.1198741510e-10	2	3.1295071920e-03	2.3183222870e-10	2	false	GAMG	4.5588049390e-03	2.9681224530e-05	4	true
0.0739462508802   	DILUPBiCGStab	2.2154843900e-04	5.1023094330e-10	2	3.1245773150e-03	2.3560466890e-10	2	false	GAMG	4.4917561150e-03	3.0487236350e-05	4	true
0.0745499829289   	DILUPBiCGStab	2.2163849660e-04	5.0621446400e-10	2	3.1147646910e-03	2.3659511520e-10	2	false	GAMG	4.5185396380e-03	2.9363699620e-05	4	true
0.0751539650134   	DILUPBiCGStab	2.2168483670e-04	5.0455710530e-10	2	3.1111596850e-03	2.4059543160e-10	2	false	GAMG	4.4340372320e-03	2.9935013180e-05	4	true
0.0757581934118   	DILUPBiCGStab	2.2172268270e-04	5.0075354640e-10	2	3.1021708090e-03	2.4213234000e-10	2	false	GAMG	4.3994455770e-03	2.9853009480e-05	4	true
0.076362664762    	DILUPBiCGStab	2.2173768220e-04	4.9912413850e-10	2	3.0946189790e-03	2.4699015220e-10	2	false	GAMG	4.4806722830e-03	2.8733418270e-05	4	true
0.0769673760352   	DILUPBiCGStab	2.2167164530e-04	4.9466651650e-10	2	3.0876298670e-03	2.4746147950e-10	2	false	GAMG	4.3662553230e-03	2.9496106680e-05	4	true
0.0775723241285   	DILUPBiCGStab	2.2165051770e-04	4.9330340970e-10	2	3.0811388980e-03	2.5194915470e-10	2	false	GAMG	4.3830665060e-03	2.9195002530e-05	4	true
0.0781775059037   	DILUPBiCGStab	2.2162219690e-04	4.8957720330e-10	2	3.0720418340e-03	2.5303905870e-10	2	false	GAMG	4.3806532450e-03	2.8913690050e-05	4	true
0.0787829182678   	DILUPBiCGStab	2.2159305270e-04	4.8824127520e-10	2	3.0644635660e-03	2.5730817850e-10	2	false	GAMG	4.4226960980e-03	2.8470565570e-05	4	true
0.0793885583016   	DILUPBiCGStab	2.2151459020e-04	4.8451949220e-10	2	3.0555937030e-03	2.5803053690e-10	2	false	GAMG	4.3861499100e-03	2.8489851950e-05	4	true
0.0799944232803   	DILUPBiCGStab	2.2142939760e-04	4.8317160470e-10	2	3.0500699870e-03	2.6145558270e-10	2	false	GAMG	4.3784693000e-03	2.8464690160e-05	4	true
0.0806005100208   	DILUPBiCGStab	2.2139067020e-04	4.7935964530e-10	2	3.0398044730e-03	2.6177198370e-10	2	false	GAMG	4.3843894490e-03	2.7771084970e-05	4	true
0.0812068158347   	DILUPBiCGStab	2.2135754550e-04	4.7746093340e-10	2	3.0324033380e-03	2.6496826660e-10	2	false	GAMG	4.4644576680e-03	2.7588577840e-05	4	true
0.0818133374477   	DILUPBiCGStab	2.2135007630e-04	4.7359854200e-10	2	3.0199778550e-03	2.6490012670e-10	2	false	GAMG	4.4814430680e-03	2.7286569300e-05	4	true
0.0824200727751   	DILUPBiCGStab	2.2128054700e-04	4.7160315160e-10	2	3.0152183730e-03	2.6695142720e-10	2	false	GAMG	4.3949463790e-03	2.7691255970e-05	4	true
0.0830270190693   	DILUPBiCGStab	2.2123422590e-04	4.6798741650e-10	2	3.0044582980e-03	2.6641566580e-10	2	false	GAMG	4.3784292550e-03	2.7342017520e-05	4	true
0.0836341733148   	DILUPBiCGStab	2.2116446560e-04	4.6635107550e-10	2	2.9961181390e-03	2.6815017500e-10	2	false	GAMG	4.4420413260e-03	2.7484049450e-05	4	true
0.0842415324548   	DILUPBiCGStab	2.2108683720e-04	4.6260390090e-10	2	2.9848581870e-03	2.6684074390e-10	2	false	GAMG	4.4699351500e-03	2.6802097780e-05	4	true
0.084849094391    	DILUPBiCGStab	2.2096297350e-04	4.6075580410e-10	2	2.9778838340e-03	2.6784951300e-10	2	false	GAMG	4.4308801970e-03	2.6901751180e-05	4	true
0.085456856386    	DILUPBiCGStab	2.2083340540e-04	4.5724302470e-10	2	2.9669753400e-03	2.6589858500e-10	2	false	GAMG	4.4681240490e-03	2.7326770230e-05	4	true
0.0860648151803   	DILUPBiCGStab	2.2071093730e-04	4.5577055150e-10	2	2.9570728690e-03	2.6649609300e-10	2	false	GAMG	4.5226319340e-03	2.6262502020e-05	4	true
0.0866729684923   	DILUPBiCGStab	2.2049431650e-04	4.5174891050e-10	2	2.9490233450e-03	2.6320485870e-10	2	false	GAMG	4.4768057090e-03	2.6822873720e-05	4	true
0.0872813146053   	DILUPBiCGStab	2.2036047510e-04	4.5035040830e-10	2	2.9413983230e-03	2.6352226120e-10	2	false	GAMG	4.4466653340e-03	2.5956300820e-05	4	true
0.0878898503436   	DILUPBiCGStab	2.2022744900e-04	4.4702228270e-10	2	2.9304401850e-03	2.5985658450e-10	2	false	GAMG	4.3932919860e-03	2.6246756820e-05	4	true
0.0884985729383   	DILUPBiCGStab	2.2006875000e-04	4.4536482080e-10	2	2.9220427010e-03	2.5841679690e-10	2	false	GAMG	4.4134615570e-03	2.5975688360e-05	4	true
0.0891074802799   	DILUPBiCGStab	2.1992586220e-04	4.4192854410e-10	2	2.9117432550e-03	2.5400480610e-10	2	false	GAMG	4.4011303220e-03	2.6633882910e-05	4	true
0.0897165701167   	DILUPBiCGStab	2.1981574220e-04	4.4036829660e-10	2	2.9032898870e-03	2.5239913790e-10	2	false	GAMG	4.4384434190e-03	2.6216739790e-05	4	true
0.0903258397613   	DILUPBiCGStab	2.1967699660e-04	4.3695820520e-10	2	2.8911345080e-03	2.4757087710e-10	2	false	GAMG	4.3892698450e-03	2.5905114810e-05	4	true
0.0909352872041   	DILUPBiCGStab	2.1949719890e-04	4.3512825860e-10	2	2.8838230530e-03	2.4518818020e-10	2	false	GAMG	4.3152159570e-03	2.6068902450e-05	4	true
0.0915449101044   	DILUPBiCGStab	2.1933121470e-04	4.3183451640e-10	2	2.8727782870e-03	2.4038225380e-10	2	false	GAMG	4.3073818510e-03	2.5977880540e-05	4	true
0.092154706031    	DILUPBiCGStab	2.1916238640e-04	4.3032214110e-10	2	2.8640720140e-03	2.3775493810e-10	2	false	GAMG	4.3099327390e-03	2.5562979490e-05	4	true
0.0927646726602   	DILUPBiCGStab	2.1896332740e-04	4.2704062570e-10	2	2.8524956010e-03	2.3278349580e-10	2	false	GAMG	4.3545967610e-03	2.5567654760e-05	4	true
0.0933748074305   	DILUPBiCGStab	2.1876244890e-04	4.2570285600e-10	2	2.8426497070e-03	2.2950059520e-10	2	false	GAMG	4.4668382870e-03	2.5212484620e-05	4	true
0.0939851082534   	DILUPBiCGStab	2.1850431780e-04	4.2266793540e-10	2	2.8308774960e-03	2.2499708690e-10	2	false	GAMG	4.4339759720e-03	2.5337166650e-05	4	true
0.0945955734637   	DILUPBiCGStab	2.1826083660e-04	4.2145783870e-10	2	2.8237489090e-03	2.2248703980e-10	2	false	GAMG	4.3489455610e-03	2.5307783830e-05	4	true
0.0952062007731   	DILUPBiCGStab	2.1805478350e-04	4.1885893040e-10	2	2.8120570550e-03	2.1799481670e-10	2	false	GAMG	4.3353776200e-03	2.4900734290e-05	4	true
0.0958169877733   	DILUPBiCGStab	2.1784872290e-04	4.1754381890e-10	2	2.8027260240e-03	2.1533036490e-10	2	false	GAMG	4.3232378770e-03	2.5295376540e-05	4	true
0.0964279326179   	DILUPBiCGStab	2.1765311080e-04	4.1492981930e-10	2	2.7906901730e-03	2.1093004440e-10	2	false	GAMG	4.3818723880e-03	2.5471404080e-05	4	true
0.0970390322917   	DILUPBiCGStab	2.1746271060e-04	4.1383503460e-10	2	2.7798505830e-03	2.0747596680e-10	2	false	GAMG	4.4186057900e-03	2.4500492910e-05	4	true
0.097650276681    	DILUPBiCGStab	2.1722544710e-04	4.1120428680e-10	2	2.7679966070e-03	2.0330753640e-10	2	false	GAMG	4.4043573190e-03	2.4978647530e-05	4	true
0.0982616641591   	DILUPBiCGStab	2.1698414460e-04	4.1016627830e-10	2	2.7581582460e-03	2.0036646630e-10	2	false	GAMG	4.4133665560e-03	2.4444269970e-05	4	true
0.0988731921506   	DILUPBiCGStab	2.1671887770e-04	4.0757946970e-10	2	2.7464310820e-03	1.9671623410e-10	2	false	GAMG	4.3824240750e-03	2.4339415370e-05	4	true
0.099484858866    	DILUPBiCGStab	2.1646462500e-04	4.0649853380e-10	2	2.7358616210e-03	1.9317839450e-10	2	false	GAMG	4.3700788570e-03	2.4799432890e-05	4	true
0.10009666213     	DILUPBiCGStab	2.1621653520e-04	4.0386697460e-10	2	2.7234504240e-03	1.8924138370e-10	2	false	GAMG	4.3947067290e-03	2.4751847400e-05	4	true
0.100708600704    	DILUPBiCGStab	2.1594699330e-04	4.0278881810e-10	2	2.7140179050e-03	1.8679709610e-10	2	false	GAMG	4.3848791750e-03	2.4846362160e-05	4	true
0.101320672568    	DILUPBiCGStab	2.1569608430e-04	4.0043251950e-10	2	2.7019453950e-03	1.8275454610e-10	2	false	GAMG	4.3894095330e-03	2.4355911800e-05	4	true
0.101932875592    	DILUPBiCGStab	2.1545550370e-04	3.9951154180e-10	2	2.6914173970e-03	1.7971207040e-10	2	false	GAMG	4.3819597480e-03	2.4317352520e-05	4	true
0.102545208032    	DILUPBiCGStab	2.1520734580e-04	3.9733763610e-10	2	2.6796322070e-03	1.7627845840e-10	2	false	GAMG	4.4010895840e-03	2.3911977970e-05	4	true
0.103157668684    	DILUPBiCGStab	2.1494722770e-04	3.9652715910e-10	2	2.6703192440e-03	1.7429405260e-10	2	false	GAMG	4.3490623530e-03	2.4157326150e-05	4	true
0.103770255464    	DILUPBiCGStab	2.1469411110e-04	3.9423499510e-10	2	2.6583094580e-03	1.7236824910e-10	2	false	GAMG	4.3481793190e-03	2.3586088860e-05	4	true
0.104382966879    	DILUPBiCGStab	2.1441655400e-04	3.9325840720e-10	2	2.6488742110e-03	1.7170441610e-10	2	false	GAMG	4.3496939470e-03	2.4243654820e-05	4	true
0.104995801019    	DILUPBiCGStab	2.1415830210e-04	3.9114493820e-10	2	2.6368249430e-03	1.7205259240e-10	2	false	GAMG	4.3417594290e-03	2.4184984040e-05	4	true
0.105608756117    	DILUPBiCGStab	2.1391990650e-04	3.9042057690e-10	2	2.6260894790e-03	1.7642002830e-10	2	false	GAMG	4.3414407750e-03	2.3972950770e-05	4	true
0.106221830472    	DILUPBiCGStab	2.1364962720e-04	3.8846111840e-10	2	2.6141456460e-03	1.8362719460e-10	2	false	GAMG	4.3198347990e-03	2.3479112210e-05	4	true
0.106835022716    	DILUPBiCGStab	2.1335728280e-04	3.8767936640e-10	2	2.6046107170e-03	1.9387636230e-10	2	false	GAMG	4.2986044570e-03	2.3706253490e-05	4	true