# Solver information
# Time            	U_solver          	Ux_initial        	Ux_final          	Ux_iters          	Uy_initial        	Uy_final          	Uy_iters          	U_converged       	p_solver          	p_initial         	p_final           	p_iters           	p_converged       
0.000152610522044 	DILUPBiCGStab	1.9419183100e-03	2.3477678090e-10	2	4.7465972530e-02	1.7839939260e-10	3	false	GAMG	1.0000000000e+00	6.7534378150e-03	10	true
0.000335743148496 	DILUPBiCGStab	9.9705516480e-02	7.5476799520e-10	2	3.7497298090e-01	9.7491393020e-11	3	false	GAMG	3.9301050170e-01	2.9551055940e-03	7	true
0.000550408190382 	DILUPBiCGStab	1.3265307620e-01	5.4349838990e-11	3	4.3765655840e-01	6.2434217900e-10	3	false	GAMG	4.4566458170e-01	4.1219526910e-03	6	true
0.000808006240645 	DILUPBiCGStab	5.7641397940e-02	9.6246277750e-10	2	1.4018694230e-01	2.6451238980e-10	3	false	GAMG	5.8004396800e-01	5.3179650680e-03	6	true
0.00111572995269  	DILUPBiCGStab	1.2996989020e-02	8.9235621090e-10	2	7.5592640490e-02	3.0007133160e-10	3	false	GAMG	6.8945013640e-01	6.0924642230e-03	5	true
0.00147839936662  	DILUPBiCGStab	7.2908199960e-03	3.3086631420e-11	3	5.9868970740e-02	4.5825436930e-10	3	false	GAMG	5.0500027830e-01	3.4946771770e-03	6	true
0.00189652572538  	DILUPBiCGStab	3.0138034820e-03	4.4467023910e-11	3	2.3650816630e-02	5.2280305290e-10	3	false	GAMG	3.3893331910e-01	2.0682010240e-03	5	true
0.00237033118578  	DILUPBiCGStab	2.0042100130e-03	6.6953292500e-11	3	1.6489488620e-02	6.6143715730e-10	3	false	GAMG	2.1112824990e-01	2.0260630360e-03	4	true
0.00290014107394  	DILUPBiCGStab	1.5524179170e-03	1.0012891590e-10	3	1.2748585960e-02	9.2648650350e-10	3	false	GAMG	1.7288529630e-01	1.3976165540e-03	4	true
0.00345954325939  	DILUPBiCGStab	1.2144271870e-03	1.1865072700e-10	3	1.0254553720e-02	9.7191415140e-10	3	false	GAMG	9.3412671990e-02	8.7841904250e-04	4	true
0.00401870051635  	DILUPBiCGStab	1.0062387980e-03	9.8548946820e-11	3	7.9716185310e-03	7.9086580800e-10	3	false	GAMG	5.6663581800e-02	5.1216772360e-04	4	true
0.00457914883673  	DILUPBiCGStab	8.8034857520e-04	7.9973875150e-11	3	6.7254102490e-03	6.7334072220e-10	3	false	GAMG	3.8349847640e-02	3.6094127850e-04	4	true
0.00514197351254  	DILUPBiCGStab	7.9636403720e-04	6.7763466260e-11	3	6.0322674920e-03	5.9431363140e-10	3	false	GAMG	2.9252947660e-02	2.6526136870e-04	4	true
0.00570789457965  	DILUPBiCGStab	7.3582829000e-04	5.9230897200e-11	3	5.5814269110e-03	5.2852750750e-10	3	false	GAMG	2.3083227880e-02	2.0915086110e-04	4	true
0.00627737531074  	DILUPBiCGStab	6.8903737520e-04	5.2901299400e-11	3	5.2234548670e-03	4.7287795200e-10	3	false	GAMG	2.0391509530e-02	1.8320033610e-04	4	true
0.00685072493925  	DILUPBiCGStab	6.5163024920e-04	4.7972166400e-11	3	4.9405261170e-03	4.2726691180e-10	3	false	GAMG	1.7806651660e-02	1.6149933020e-04	4	true
0.00742817181005  	DILUPBiCGStab	6.2097954280e-04	4.3977901760e-11	3	4.7063384330e-03	3.9049941770e-10	3	false	GAMG	1.6383478110e-02	1.4588274230e-04	4	true
0.00800989149526  	DILUPBiCGStab	5.9524929980e-04	9.8407024430e-10	2	4.5022183840e-03	3.6177137640e-10	3	false	GAMG	1.5156341390e-02	1.2996912930e-04	4	true
0.00859602317858  	DILUPBiCGStab	5.7343856360e-04	9.1153491010e-10	2	4.3190241440e-03	3.3821210820e-10	3	false	GAMG	1.4683812930e-02	1.2330235150e-04	4	true
0.00918667568434  	DILUPBiCGStab	5.5473947530e-04	8.4856825170e-10	2	4.1544467390e-03	3.1897275520e-10	3	false	GAMG	1.4177590860e-02	1.1488884300e-04	4	true
0.00978192456909  	DILUPBiCGStab	5.3838918290e-04	7.9292487220e-10	2	4.0198528050e-03	3.0274034220e-10	3	false	GAMG	1.4265996220e-02	1.0678135330e-04	4	true
0.0103818088398   	DILUPBiCGStab	5.2312009190e-04	7.4344075220e-10	2	3.9071082670e-03	2.8904952270e-10	3	false	GAMG	1.4236774820e-02	1.0484646210e-04	4	true
0.01098632928     	DILUPBiCGStab	5.0907725500e-04	6.9920889270e-10	2	3.8123074760e-03	2.7728481750e-10	3	false	GAMG	1.4549810810e-02	9.8525805460e-05	4	true
0.0115954494515   	DILUPBiCGStab	4.9573726420e-04	6.5923085780e-10	2	3.7325328360e-03	2.6704733040e-10	3	false	GAMG	1.4910082520e-02	9.7040199940e-05	4	true
0.0122090993313   	DILUPBiCGStab	4.8364336100e-04	6.2290311870e-10	2	3.6640905520e-03	2.5782301200e-10	3	false	GAMG	1.5423800440e-02	9.6262111490e-05	4	true
0.0128271803407   	DILUPBiCGStab	4.7240754720e-04	5.8953987490e-10	2	3.6077708950e-03	2.4971022400e-10	3	false	GAMG	1.6060389150e-02	9.3822048090e-05	4	true
0.0134495723474   	DILUPBiCGStab	4.6228156500e-04	5.5884952900e-10	2	3.5688781750e-03	2.4238563190e-10	3	false	GAMG	1.6840017920e-02	9.5002641660e-05	4	true
0.0140761414134   	DILUPBiCGStab	4.5261875140e-04	5.3048276730e-10	2	3.5315292970e-03	2.3565239430e-10	3	false	GAMG	1.7652191880e-02	9.1278559700e-05	4	true
0.0147067454686   	DILUPBiCGStab	4.4368735870e-04	5.0508812380e-10	2	3.5019390790e-03	2.2954910080e-10	3	false	GAMG	1.8417437130e-02	9.3202990670e-05	4	true
0.015341239788    	DILUPBiCGStab	4.3520516650e-04	4.8306340820e-10	2	3.4675948700e-03	2.2398876130e-10	3	false	GAMG	1.9092869900e-02	1.8612598170e-04	3	true
0.0159794813627   	DILUPBiCGStab	4.2728111790e-04	4.6470286180e-10	2	3.4436706520e-03	2.1856612360e-10	3	false	GAMG	1.9841419440e-02	1.8401094810e-04	3	true
0.0166213312456   	DILUPBiCGStab	4.1974487900e-04	4.5280940070e-10	2	3.4184588910e-03	2.1360611630e-10	3	false	GAMG	2.0480694020e-02	1.7763998350e-04	3	true
0.0172666580703   	DILUPBiCGStab	4.1265077180e-04	4.4508077030e-10	2	3.4061589140e-03	2.0895578440e-10	3	false	GAMG	2.0964141870e-02	1.7547113450e-04	3	true
0.0179153357242   	DILUPBiCGStab	4.0601490210e-04	4.3913120030e-10	2	3.3869866040e-03	2.0458390390e-10	3	false	GAMG	2.1528959340e-02	1.7011205250e-04	3	true
0.0185672443327   	DILUPBiCGStab	3.9960030350e-04	4.3435670800e-10	2	3.3785945930e-03	2.0069116790e-10	3	false	GAMG	2.2004172610e-02	1.7058894280e-04	3	true
0.0192222696789   	DILUPBiCGStab	3.9364136170e-04	4.2989305010e-10	2	3.3616883650e-03	1.9779724520e-10	3	false	GAMG	2.2531281800e-02	1.6815222860e-04	3	true
0.0198803018874   	DILUPBiCGStab	3.8796016270e-04	4.2608424800e-10	2	3.3585836960e-03	1.9580618910e-10	3	false	GAMG	2.2974157180e-02	1.7038385260e-04	3	true
0.0205412332801   	DILUPBiCGStab	3.8277217110e-04	4.2173972810e-10	2	3.3487867880e-03	1.9440899120e-10	3	false	GAMG	2.3471776300e-02	1.6586304370e-04	3	true
0.0212049562081   	DILUPBiCGStab	3.7779065400e-04	4.1806894960e-10	2	3.3533985870e-03	1.9331514490e-10	3	false	GAMG	2.4033065140e-02	1.6850164130e-04	3	true
0.0218713649522   	DILUPBiCGStab	3.7328036780e-04	4.1339725090e-10	2	3.3465673300e-03	1.9263176550e-10	3	false	GAMG	2.4579238500e-02	1.6708166110e-04	3	true
0.0225403552501   	DILUPBiCGStab	3.6891762320e-04	4.0901847240e-10	2	3.3544847460e-03	1.9238048570e-10	3	false	GAMG	2.5040204430e-02	1.6510940670e-04	3	true
0.0232118199955   	DILUPBiCGStab	3.6485617690e-04	4.0386585950e-10	2	3.3474813120e-03	1.9174882300e-10	3	false	GAMG	2.5446405040e-02	1.6094889090e-04	3	true
0.0238856550754   	DILUPBiCGStab	3.6116211620e-04	3.9927576560e-10	2	3.3538758540e-03	1.9128764770e-10	3	false	GAMG	2.5961754420e-02	1.6957482430e-04	3	true
0.0245617582449   	DILUPBiCGStab	3.5760527450e-04	3.9334249010e-10	2	3.3518542130e-03	1.9120191370e-10	3	false	GAMG	2.6532065180e-02	1.5959711480e-04	3	true
0.0252400284531   	DILUPBiCGStab	3.5428702830e-04	3.8808533660e-10	2	3.3580264460e-03	1.9092843090e-10	3	false	GAMG	2.7019413470e-02	1.6368479130e-04	3	true
0.0259203676798   	DILUPBiCGStab	3.5107267670e-04	3.8174674510e-10	2	3.3570064400e-03	1.9052063720e-10	3	false	GAMG	2.7679351500e-02	1.5550579380e-04	3	true
0.0266026823123   	DILUPBiCGStab	3.4812173380e-04	3.7555107520e-10	2	3.3635066020e-03	1.9021556030e-10	3	false	GAMG	2.8279162250e-02	1.6248793090e-04	3	true
0.0272868832422   	DILUPBiCGStab	3.4526704410e-04	3.6926376970e-10	2	3.3636591050e-03	1.8948825170e-10	3	false	GAMG	2.8808242210e-02	1.5137894840e-04	3	true
0.0279728872759   	DILUPBiCGStab	3.4262535540e-04	3.6310262020e-10	2	3.3692725210e-03	1.8894851700e-10	3	false	GAMG	2.9468756270e-02	1.5788674370e-04	3	true
0.0286606167024   	DILUPBiCGStab	3.4006722170e-04	3.5604512160e-10	2	3.3716447230e-03	1.8813820320e-10	3	false	GAMG	3.0369365650e-02	1.4985637030e-04	3	true
0.0293500001538   	DILUPBiCGStab	3.3766641030e-04	3.4944723930e-10	2	3.3801184810e-03	1.8674421090e-10	3	false	GAMG	3.1017019960e-02	1.5695789140e-04	3	true
0.0300409727728   	DILUPBiCGStab	3.3541715660e-04	3.4167629300e-10	2	3.3848594170e-03	1.8572390470e-10	3	false	GAMG	3.1729251520e-02	1.4825823400e-04	3	true
0.0307334754021   	DILUPBiCGStab	3.3333663840e-04	3.3416513180e-10	2	3.3938628570e-03	1.8407134030e-10	3	false	GAMG	3.2462011170e-02	1.5603973820e-04	3	true
0.0314274547368   	DILUPBiCGStab	3.3126353270e-04	3.2523143420e-10	2	3.3993199880e-03	1.8217389300e-10	3	false	GAMG	3.3026498700e-02	1.4822619280e-04	3	true
0.0321228625385   	DILUPBiCGStab	3.2968257420e-04	3.1721430690e-10	2	3.4058731320e-03	1.8023033480e-10	3	false	GAMG	3.3429364110e-02	1.5590425520e-04	3	true
0.0328196553377   	DILUPBiCGStab	3.2805478090e-04	3.0807812500e-10	2	3.4092491120e-03	1.7830780420e-10	3	false	GAMG	3.4139070210e-02	1.4751117270e-04	3	true
0.0335177936513   	DILUPBiCGStab	3.2688702460e-04	2.9937540160e-10	2	3.4158252190e-03	1.7601793730e-10	3	false	GAMG	3.4531912720e-02	1.5478352750e-04	3	true
0.0342172418717   	DILUPBiCGStab	3.2553442600e-04	2.9004396010e-10	2	3.4193631360e-03	1.7370554870e-10	3	false	GAMG	3.5051853610e-02	1.4832095750e-04	3	true
0.0349179672753   	DILUPBiCGStab	3.2452240460e-04	2.8088875980e-10	2	3.4254035720e-03	1.7116424970e-10	3	false	GAMG	3.5487876420e-02	1.5157515480e-04	3	true
0.0356199393809   	DILUPBiCGStab	3.2321849460e-04	2.7099426010e-10	2	3.4268053020e-03	1.6787465540e-10	3	false	GAMG	3.5756430330e-02	1.4511701510e-04	3	true
0.0363231304176   	DILUPBiCGStab	3.2222613940e-04	2.6149137970e-10	2	3.4363114340e-03	1.6455589260e-10	3	false	GAMG	3.5790978420e-02	1.4937138600e-04	3	true
0.0370275140021   	DILUPBiCGStab	3.2103152010e-04	2.5190299340e-10	2	3.4390033430e-03	1.6172610630e-10	3	false	GAMG	3.6050678370e-02	1.4910340490e-04	3	true
0.0377330648002   	DILUPBiCGStab	3.2052884930e-04	2.4241453080e-10	2	3.4450185210e-03	1.5869796690e-10	3	false	GAMG	3.6303391630e-02	1.5024111670e-04	3	true
0.0384397588492   	DILUPBiCGStab	3.1955910750e-04	2.3370823650e-10	2	3.4492194770e-03	1.5580440500e-10	3	false	GAMG	3.6332130760e-02	1.5117785400e-04	3	true
0.0391475721553   	DILUPBiCGStab	3.1922313030e-04	2.2476080490e-10	2	3.4565932860e-03	1.5267208410e-10	3	false	GAMG	3.6078055710e-02	1.4838574270e-04	3	true
0.0398564811557   	DILUPBiCGStab	3.1848015310e-04	2.1642301000e-10	2	3.4590900230e-03	1.4984926870e-10	3	false	GAMG	3.5981866840e-02	1.4694224700e-04	3	true
0.0405664628946   	DILUPBiCGStab	3.1817312410e-04	2.0836410420e-10	2	3.4666913320e-03	1.4668143630e-10	3	false	GAMG	3.5821126880e-02	1.4743305370e-04	3	true
0.0412774944571   	DILUPBiCGStab	3.1759357280e-04	2.0069064690e-10	2	3.4650729890e-03	1.4374342730e-10	3	false	GAMG	3.5746383150e-02	1.4509312140e-04	3	true
0.0419895527819   	DILUPBiCGStab	3.1735972010e-04	1.9303276510e-10	2	3.4726931050e-03	1.4069778620e-10	3	false	GAMG	3.5601491100e-02	1.4441259480e-04	3	true
0.0427026157778   	DILUPBiCGStab	3.1687017170e-04	1.8625661830e-10	2	3.4731445110e-03	1.3750004880e-10	3	false	GAMG	3.5427088300e-02	1.4425432390e-04	3	true
0.0434166614121   	DILUPBiCGStab	3.1673611160e-04	1.7961202380e-10	2	3.4872892920e-03	1.3470689720e-10	3	false	GAMG	3.4892542920e-02	1.4634534950e-04	3	true
0.0441316672985   	DILUPBiCGStab	3.1648162440e-04	1.7317044370e-10	2	3.4823386180e-03	1.3186184840e-10	3	false	GAMG	3.4817216840e-02	1.4439951740e-04	3	true
0.0448476114507   	DILUPBiCGStab	3.1648487120e-04	1.6661432480e-10	2	3.4896001560e-03	1.2919936430e-10	3	false	GAMG	3.4686778710e-02	1.4116581050e-04	3	true
0.0455644735936   	DILUPBiCGStab	3.1623972310e-04	1.6113474650e-10	2	3.4903020360e-03	1.2701200780e-10	3	false	GAMG	3.4023104760e-02	1.3927336230e-04	3	true
0.046282231484    	DILUPBiCGStab	3.1620052720e-04	1.5609610710e-10	2	3.4990005240e-03	1.2466379500e-10	3	false	GAMG	3.3372822030e-02	1.4269162510e-04	3	true
0.0470008645115   	DILUPBiCGStab	3.1622661550e-04	1.5135712050e-10	2	3.4952971290e-03	1.2217719540e-10	3	false	GAMG	3.2807531310e-02	1.4095038380e-04	3	true
0.0477203521695   	DILUPBiCGStab	3.1644960760e-04	1.4640258630e-10	2	3.5006139530e-03	1.1988557330e-10	3	false	GAMG	3.2369157100e-02	1.3935074620e-04	3	true
0.0484406740822   	DILUPBiCGStab	3.1651737730e-04	1.4215817510e-10	2	3.4990284860e-03	1.1763460730e-10	3	false	GAMG	3.1959917060e-02	1.4111964360e-04	3	true
0.049161811531    	DILUPBiCGStab	3.1685241200e-04	1.3804781230e-10	2	3.5011264390e-03	1.1555609830e-10	3	false	GAMG	3.1447690310e-02	1.4229792620e-04	3	true
0.0498837451878   	DILUPBiCGStab	3.1709628080e-04	1.3443039520e-10	2	3.4959976650e-03	1.1320070300e-10	3	false	GAMG	3.1095062350e-02	1.3259188260e-04	3	true
0.0506064573778   	DILUPBiCGStab	3.1724635070e-04	1.3090490110e-10	2	3.5041748090e-03	1.1118970430e-10	3	false	GAMG	3.0303228520e-02	1.3547274130e-04	3	true
0.0513299306514   	DILUPBiCGStab	3.1737650670e-04	1.2779610770e-10	2	3.5052737920e-03	1.0926550050e-10	3	false	GAMG	2.9714610830e-02	1.3312576920e-04	3	true
0.0520541478944   	DILUPBiCGStab	3.1756785220e-04	1.2457619050e-10	2	3.5086549660e-03	1.0753431330e-10	3	false	GAMG	2.9195206910e-02	1.3372634750e-04	3	true
0.0527790926046   	DILUPBiCGStab	3.1761998480e-04	1.2169870750e-10	2	3.5080292950e-03	1.0607169550e-10	3	false	GAMG	2.8363228590e-02	1.2844413540e-04	3	true
0.0535047499636   	DILUPBiCGStab	3.1797619050e-04	1.1864472830e-10	2	3.5095767770e-03	1.0467566010e-10	3	false	GAMG	2.7476043310e-02	1.3063659780e-04	3	true
0.0542311040515   	DILUPBiCGStab	3.1826483130e-04	1.1611201330e-10	2	3.5049068420e-03	1.0356610560e-10	3	false	GAMG	2.6466406240e-02	1.2681681040e-04	3	true
0.0549581407284   	DILUPBiCGStab	3.1860709060e-04	1.1361796520e-10	2	3.5060103690e-03	1.0219125360e-10	3	false	GAMG	2.5651484040e-02	1.2632912360e-04	3	true
0.0556858461583   	DILUPBiCGStab	3.1885236910e-04	1.1145767250e-10	2	3.5020313080e-03	1.0095004660e-10	3	false	GAMG	2.4869295380e-02	1.2370231430e-04	3	true
0.0564142069957   	DILUPBiCGStab	3.1916466830e-04	1.0906248460e-10	2	3.5024557880e-03	9.9823371090e-11	3	false	GAMG	2.4065964340e-02	1.2192511090e-04	3	true
0.0571432007152   	DILUPBiCGStab	3.1933505010e-04	1.0735984090e-10	2	3.4970102650e-03	9.7822348110e-10	2	false	GAMG	2.3303602280e-02	1.1942072580e-04	3	true
0.0578727522803   	DILUPBiCGStab	3.1967752790e-04	1.0532643530e-10	2	3.4979406000e-03	9.4571961540e-10	2	false	GAMG	2.2533353920e-02	1.1849207390e-04	3	true
0.0586028523526   	DILUPBiCGStab	3.1987062390e-04	1.0375934340e-10	2	3.4935665770e-03	9.1935346510e-10	2	false	GAMG	2.1661083190e-02	1.1648735010e-04	3	true
0.0593334905365   	DILUPBiCGStab	3.2019218160e-04	1.0191244370e-10	2	3.4956184650e-03	8.8992098900e-10	2	false	GAMG	2.0988452250e-02	1.1252969040e-04	3	true
0.0600646577377   	DILUPBiCGStab	3.2035495100e-04	1.0046204370e-10	2	3.4902657930e-03	8.6737158300e-10	2	false	GAMG	2.0255404990e-02	1.1529834220e-04	3	true
0.0607963449275   	DILUPBiCGStab	3.2085043230e-04	9.8812726590e-11	2	3.4905106500e-03	8.4129392080e-10	2	false	GAMG	1.9246622600e-02	1.0965187660e-04	3	true
0.0615285431746   	DILUPBiCGStab	3.2100396850e-04	9.7595648440e-11	2	3.4864909480e-03	8.2222428550e-10	2	false	GAMG	1.8336806160e-02	1.0894512240e-04	3	true
0.0622612435263   	DILUPBiCGStab	3.2133400820e-04	9.6076354150e-11	2	3.4827106500e-03	7.9752883120e-10	2	false	GAMG	1.7337954940e-02	1.0467155730e-04	3	true
0.0629944368088   	DILUPBiCGStab	3.2151670400e-04	9.4931384260e-11	2	3.4770242110e-03	7.8012975030e-10	2	false	GAMG	1.6505564250e-02	1.0436863960e-04	3	true
0.0637281137166   	DILUPBiCGStab	3.2173099630e-04	9.3565225980e-11	2	3.4735112710e-03	7.5968654520e-10	2	false	GAMG	1.5733916140e-02	1.0063028930e-04	3	true
0.0644622658834   	DILUPBiCGStab	3.2201768070e-04	9.2561439290e-11	2	3.4690265570e-03	7.4450608430e-10	2	false	GAMG	1.5110244940e-02	1.0254555330e-04	3	true
0.0651968853432   	DILUPBiCGStab	3.2225398620e-04	9.1314672100e-11	2	3.4614094550e-03	7.2403741920e-10	2	false	GAMG	1.4311672480e-02	9.6289512360e-05	3	true
0.0659319644081   	DILUPBiCGStab	3.2255205300e-04	9.0404116510e-11	2	3.4599403340e-03	7.1379364920e-10	2	false	GAMG	1.3599059910e-02	9.8714841340e-05	3	true
0.0666674955857   	DILUPBiCGStab	3.2268818360e-04	8.9262942280e-11	2	3.4539563390e-03	6.9682980980e-10	2	false	GAMG	1.2907808030e-02	9.4254607570e-05	3	true
0.0674034712601   	DILUPBiCGStab	3.2292504430e-04	8.8468931400e-11	2	3.4504872460e-03	6.8710742900e-10	2	false	GAMG	1.2251135620e-02	9.7764240510e-05	3	true
0.0681398845969   	DILUPBiCGStab	3.2306809030e-04	8.7426463600e-11	2	3.4444330580e-03	6.7217866930e-10	2	false	GAMG	1.1589372360e-02	9.0903572160e-05	3	true
0.068876727773    	DILUPBiCGStab	3.2323609240e-04	8.6807762480e-11	2	3.4405943320e-03	6.6564820150e-10	2	false	GAMG	1.0874695920e-02	9.2144129250e-05	3	true
0.0696139944838   	DILUPBiCGStab	3.2337136400e-04	8.5962582120e-11	2	3.4346569200e-03	6.5294406940e-10	2	false	GAMG	1.0334091630e-02	8.9311218780e-05	3	true
0.0703516777202   	DILUPBiCGStab	3.2367018990e-04	8.5292403240e-11	2	3.4286175330e-03	6.4679553480e-10	2	false	GAMG	9.7146200240e-03	9.1487130690e-05	3	true
0.0710897714413   	DILUPBiCGStab	3.2388998720e-04	8.4408243920e-11	2	3.4207368650e-03	6.3619793090e-10	2	false	GAMG	9.2809049990e-03	8.8858665960e-05	3	true
0.0718282685544   	DILUPBiCGStab	3.2414749820e-04	8.3805020860e-11	2	3.4136367560e-03	6.3213578510e-10	2	false	GAMG	8.9135045820e-03	4.2224589340e-05	4	true
0.072567163344    	DILUPBiCGStab	3.2433015900e-04	8.3011328350e-11	2	3.4065613620e-03	6.2384922700e-10	2	false	GAMG	8.6027819990e-03	4.1269923210e-05	4	true
0.0733064489493   	DILUPBiCGStab	3.2450134710e-04	8.2387152840e-11	2	3.3991291540e-03	6.2140687830e-10	2	false	GAMG	8.3646309390e-03	4.0884948930e-05	4	true
0.0740461204604   	DILUPBiCGStab	3.2466770070e-04	8.1688645920e-11	2	3.3935327530e-03	6.1609512600e-10	2	false	GAMG	8.1306180770e-03	4.1022864920e-05	4	true
0.0747861712461   	DILUPBiCGStab	3.2475691850e-04	8.1131524450e-11	2	3.3856195570e-03	6.1485344890e-10	2	false	GAMG	7.9896580550e-03	3.9770706680e-05	4	true
0.0755265965976   	DILUPBiCGStab	3.2484697580e-04	8.0491797620e-11	2	3.3798964400e-03	6.1114407020e-10	2	false	GAMG	7.7876582170e-03	4.0474012550e-05	4	true
0.0762673907453   	DILUPBiCGStab	3.2488807010e-04	7.9966260170e-11	2	3.3719105780e-03	6.1046916860e-10	2	false	GAMG	7.5875632470e-03	3.9103077120e-05	4	true
0.0770085491475   	DILUPBiCGStab	3.2489206600e-04	7.9391188670e-11	2	3.3663661980e-03	6.0842895970e-10	2	false	GAMG	7.4331895070e-03	3.9570606690e-05	4	true
0.0777500658725   	DILUPBiCGStab	3.2488294590e-04	7.8862382500e-11	2	3.3576427380e-03	6.0966960220e-10	2	false	GAMG	7.2890041340e-03	3.9017459700e-05	4	true
0.0784919363138   	DILUPBiCGStab	3.2484153730e-04	7.8292031320e-11	2	3.3496732340e-03	6.0922087840e-10	2	false	GAMG	7.1340065780e-03	3.9088983940e-05	4	true
0.0792341551396   	DILUPBiCGStab	3.2487000270e-04	7.7779394430e-11	2	3.3402334520e-03	6.1157645960e-10	2	false	GAMG	7.0581198620e-03	3.8928231800e-05	4	true
0.079976717535    	DILUPBiCGStab	3.2491345820e-04	7.7268986260e-11	2	3.3303770420e-03	6.1394083470e-10	2	false	GAMG	7.0665130600e-03	3.8962854990e-05	4	true
0.0807196177249   	DILUPBiCGStab	3.2502963160e-04	7.6745811130e-11	2	3.3196739110e-03	6.1796020540e-10	2	false	GAMG	6.9940262590e-03	3.7320229060e-05	4	true
0.0814628517754   	DILUPBiCGStab	3.2509998230e-04	7.6280008720e-11	2	3.3117067110e-03	6.2208524370e-10	2	false	GAMG	6.8842324900e-03	3.7829329720e-05	4	true
0.0822064147593   	DILUPBiCGStab	3.2511478210e-04	7.5791095380e-11	2	3.3031228630e-03	6.2681611810e-10	2	false	GAMG	6.9449199160e-03	3.8318047110e-05	4	true
0.0829503022957   	DILUPBiCGStab	3.2506630560e-04	7.5358147940e-11	2	3.2937076240e-03	6.3335907940e-10	2	false	GAMG	6.9617910860e-03	3.6336489540e-05	4	true
0.083694509803    	DILUPBiCGStab	3.2499169220e-04	7.4840468370e-11	2	3.2865411320e-03	6.3881324170e-10	2	false	GAMG	6.9032761430e-03	3.7652748140e-05	4	true
0.084439033563    	DILUPBiCGStab	3.2485708750e-04	7.4411530150e-11	2	3.2761653950e-03	6.4633166470e-10	2	false	GAMG	6.8499981750e-03	3.6234322700e-05	4	true
0.0851838687402   	DILUPBiCGStab	3.2468284770e-04	7.3873473510e-11	2	3.2681929880e-03	6.5184113750e-10	2	false	GAMG	6.7709250900e-03	3.6884996850e-05	4	true
0.0859290109765   	DILUPBiCGStab	3.2445144950e-04	7.3444271150e-11	2	3.2587859180e-03	6.5795766160e-10	2	false	GAMG	6.8818310680e-03	3.6478116610e-05	4	true
0.0866744551824   	DILUPBiCGStab	3.2425201940e-04	7.2938301230e-11	2	3.2482983630e-03	6.6466018870e-10	2	false	GAMG	6.9183934810e-03	3.5142524340e-05	4	true
0.0874201975859   	DILUPBiCGStab	3.2398646840e-04	7.2519468260e-11	2	3.2402111060e-03	6.6936039120e-10	2	false	GAMG	6.8565227790e-03	3.5900306010e-05	4	true
0.0881662333452   	DILUPBiCGStab	3.2380421410e-04	7.2025655950e-11	2	3.2306958980e-03	6.7499681850e-10	2	false	GAMG	6.9654308400e-03	3.5687227650e-05	4	true
0.0889125581184   	DILUPBiCGStab	3.2362373910e-04	7.1652323850e-11	2	3.2183443400e-03	6.8065127590e-10	2	false	GAMG	7.0624698080e-03	3.4692115810e-05	4	true
0.089659168183    	DILUPBiCGStab	3.2350997780e-04	7.1175141710e-11	2	3.2094926150e-03	6.8539825420e-10	2	false	GAMG	6.9681297100e-03	3.5159145730e-05	4	true
0.0904060594892   	DILUPBiCGStab	3.2330647610e-04	7.0804307540e-11	2	3.1997394910e-03	6.8927352110e-10	2	false	GAMG	6.9959209530e-03	3.5199618260e-05	4	true
0.091153227815    	DILUPBiCGStab	3.2316873990e-04	7.0328507710e-11	2	3.1887471210e-03	6.9398382250e-10	2	false	GAMG	7.0140927040e-03	3.4524323650e-05	4	true
0.0919006692397   	DILUPBiCGStab	3.2293540760e-04	6.9944592670e-11	2	3.1781979900e-03	6.9685702400e-10	2	false	GAMG	7.1800462030e-03	3.5173801100e-05	4	true
0.0926483796611   	DILUPBiCGStab	3.2273186340e-04	6.9458315900e-11	2	3.1666308300e-03	6.9997722210e-10	2	false	GAMG	7.2761874190e-03	3.3308776290e-05	4	true
0.0933963560992   	DILUPBiCGStab	3.2247519270e-04	6.8999792440e-11	2	3.1565239360e-03	7.0304544400e-10	2	false	GAMG	7.1795694850e-03	3.4121474320e-05	4	true
0.0941445939995   	DILUPBiCGStab	3.2216532060e-04	6.8540162880e-11	2	3.1457997360e-03	7.0428091320e-10	2	false	GAMG	7.1628073720e-03	3.3742304520e-05	4	true
0.0948930899813   	DILUPBiCGStab	3.2179427950e-04	6.8148353460e-11	2	3.1351121910e-03	7.0615880210e-10	2	false	GAMG	7.2022861790e-03	3.4052932330e-05	4	true
0.095641840249    	DILUPBiCGStab	3.2146807450e-04	6.7659891300e-11	2	3.1235067320e-03	7.0868736930e-10	2	false	GAMG	7.1915447890e-03	3.3425306210e-05	4	true
0.0963908404844   	DILUPBiCGStab	3.2113145910e-04	6.7275918310e-11	2	3.1122081040e-03	7.0962968160e-10	2	false	GAMG	7.4036535490e-03	7.2908550010e-05	3	true
0.0971400874089   	DILUPBiCGStab	3.2083116390e-04	6.6774101690e-11	2	3.1008664040e-03	7.0831359740e-10	2	false	GAMG	7.4163855300e-03	3.2765441570e-05	4	true
0.0978895775466   	DILUPBiCGStab	3.2056307020e-04	6.6394186230e-11	2	3.0896052410e-03	7.1129249080e-10	2	false	GAMG	7.2932321790e-03	7.2707765460e-05	3	true
0.0986393077601   	DILUPBiCGStab	3.2028558550e-04	6.5928002280e-11	2	3.0794637250e-03	7.1036973040e-10	2	false	GAMG	7.3061643830e-03	3.2479840660e-05	4	true
0.0993892738106   	DILUPBiCGStab	3.1992851260e-04	6.5648335560e-11	2	3.0684590140e-03	7.0991731620e-10	2	false	GAMG	7.3579677430e-03	7.2711602470e-05	3	true
0.100139472904    	DILUPBiCGStab	3.1954696920e-04	6.5165842150e-11	2	3.0571408550e-03	7.0689968010e-10	2	false	GAMG	7.3212509340e-03	3.2710811580e-05	4	true
0.10088990131     	DILUPBiCGStab	3.1920359720e-04	6.4849071910e-11	2	3.0451430130e-03	7.0749671450e-10	2	false	GAMG	7.3439219760e-03	7.1868202220e-05	3	true
0.101640556259    	DILUPBiCGStab	3.1886983080e-04	6.4360834620e-11	2	3.0337717230e-03	7.0437249740e-10	2	false	GAMG	7.4275462760e-03	7.2102266860e-05	3	true
0.102391433635    	DILUPBiCGStab	3.1846566450e-04	6.4024834170e-11	2	3.0211981570e-03	7.0207072470e-10	2	false	GAMG	7.4649198550e-03	6.9910755750e-05	3	true
0.103142531011    	DILUPBiCGStab	3.1800976410e-04	6.3514729030e-11	2	3.0113471030e-03	6.9797951800e-10	2	false	GAMG	7.4423422600e-03	7.2459730940e-05	3	true
0.103893844699    	DILUPBiCGStab	3.1754878680e-04	6.3135002970e-11	2	2.9992603620e-03	6.9441611490e-10	2	false	GAMG	7.4736023130e-03	7.0225380020e-05	3	true
0.104645371792    	DILUPBiCGStab	3.1714503370e-04	6.2676110340e-11	2	2.9873979610e-03	6.8923324600e-10	2	false	GAMG	7.5133032890e-03	7.2099756450e-05	3	true
0.105397108785    	DILUPBiCGStab	3.1678122990e-04	6.2275749460e-11	2	2.9744857430e-03	6.8538612950e-10	2	false	GAMG	7.6536926270e-03	7.1055032340e-05	3	true
0.106149052655    	DILUPBiCGStab	3.1644648020e-04	6.1839603800e-11	2	2.9606769510e-03	6.7837499200e-10	2	false	GAMG	7.7638876940e-03	7.0422625650e-05	3	true
0.106901200645    	DILUPBiCGStab	3.1605193040e-04	6.1451307420e-11	2	2.9491431000e-03	6.7461193200e-10	2	false	GAMG	7.7464659110e-03	6.8408897160e-05	3	true
0.107653550129    	DILUPBiCGStab	3.1560575500e-04	6.0973252690e-11	2	2.9383682040e-03	6.6624674090e-10	2	false	GAMG	7.7412795040e-03	7.1139561010e-05	3	true
0.108406097722    	DILUPBiCGStab	3.1511238350e-04	6.0605522700e-11	2	2.9257246290e-03	6.5927528240e-10	2	false	GAMG	7.7588901890e-03	6.9072665920e-05	3	true
0.109158840775    	DILUPBiCGStab	3.1464588790e-04	6.0151993510e-11	2	2.9129070440e-03	6.4981782590e-10	2	false	GAMG	7.8209437450e-03	7.1029279790e-05	3	true
0.109911770041    	DILUPBiCGStab	3.1414813680e-04	5.9792113560e-11	2	2.8993428860e-03	6.4233574250e-10	2	false	GAMG	7.9074839780e-03	6.8107157220e-05	3	true
0.110664875873    	DILUPBiCGStab	3.1368839030e-04	5.9321294350e-11	2	2.8858729820e-03	6.3103228200e-10	2	false	GAMG	7.9301542520e-03	7.0371497260e-05	3	true
0.111418155737    	DILUPBiCGStab	3.1322500370e-04	5.8962007630e-11	2	2.8743990800e-03	6.2346748400e-10	2	false	GAMG	7.8790560000e-03	6.7621784580e-05	3	true
0.112171606726    	DILUPBiCGStab	3.1275966580e-04	5.8516715350e-11	2	2.8619741880e-03	6.1149188610e-10	2	false	GAMG	7.9455783090e-03	6.9893539100e-05	3	true
0.112925226385    	DILUPBiCGStab	3.1227493460e-04	5.8176603540e-11	2	2.8496505690e-03	6.0421927280e-10	2	false	GAMG	8.0398006870e-03	6.8300451470e-05	3	true
0.113679011697    	DILUPBiCGStab	3.1182664440e-04	5.7733986390e-11	2	2.8364314530e-03	5.8977643540e-10	2	false	GAMG	8.0517743610e-03	6.9426166780e-05	3	true
0.114432960149    	DILUPBiCGStab	3.1136440830e-04	5.7382613400e-11	2	2.8240924980e-03	5.7865797950e-10	2	false	GAMG	8.0243061200e-03	6.8307636700e-05	3	true
0.115187069181    	DILUPBiCGStab	3.1091170730e-04	5.6993796730e-11	2	2.8105956560e-03	5.6402888720e-10	2	false	GAMG	8.0528358830e-03	6.9253951460e-05	3	true
0.115941336213    	DILUPBiCGStab	3.1046008170e-04	5.6671881090e-11	2	2.7982637700e-03	5.5454579420e-10	2	false	GAMG	8.0874407940e-03	6.6736526380e-05	3	true
0.116695759056    	DILUPBiCGStab	3.0993656230e-04	5.6287541390e-11	2	2.7868006160e-03	5.4314944640e-10	2	false	GAMG	8.1034071270e-03	6.9251240280e-05	3	true
0.117450334772    	DILUPBiCGStab	3.0947003010e-04	5.5996270240e-11	2	2.7741900820e-03	5.3040138580e-10	2	false	GAMG	8.0743339680e-03	6.6874358220e-05	3	true
0.118205061051    	DILUPBiCGStab	3.0889415090e-04	9.9942327970e-10	2	2.7618159550e-03	5.1621999360e-10	2	false	GAMG	8.1008568680e-03	6.9465496590e-05	3	true
0.118959934921    	DILUPBiCGStab	3.0839807390e-04	9.9474048970e-10	2	2.7479944290e-03	5.0365691220e-10	2	false	GAMG	8.1387902730e-03	6.6377602470e-05	3	true
0.11971495419     	DILUPBiCGStab	3.0780837420e-04	9.8835910860e-10	2	2.7355913840e-03	4.9034316290e-10	2	false	GAMG	8.1350253580e-03	6.8724867030e-05	3	true
0.120470116138    	DILUPBiCGStab	3.0729117930e-04	9.8449359470e-10	2	2.7231156670e-03	4.8010576260e-10	2	false	GAMG	8.1556990700e-03	6.6766382360e-05	3	true
0.12122541829     	DILUPBiCGStab	3.0676650420e-04	9.7813369430e-10	2	2.7101428900e-03	4.6532087280e-10	2	false	GAMG	8.2095576090e-03	6.8415468380e-05	3	true
0.121980858191    	DILUPBiCGStab	3.0625191840e-04	9.7465346900e-10	2	2.6978339010e-03	4.5693914850e-10	2	false	GAMG	8.1523979370e-03	6.5889495450e-05	3	true
0.122736433144    	DILUPBiCGStab	3.0573951010e-04	9.6791156260e-10	2	2.6851703500e-03	4.4485948700e-10	2	false	GAMG	8.1624981690e-03	6.8984314490e-05	3	true
0.123492140364    	DILUPBiCGStab	3.0520030750e-04	9.6500429990e-10	2	2.6725966840e-03	4.3689587940e-10	2	false	GAMG	8.1984553760e-03	6.6220904970e-05	3	true
0.12424797708     	DILUPBiCGStab	3.0472430660e-04	9.5826077070e-10	2	2.6590188740e-03	4.2332105530e-10	2	false	GAMG	8.2282367600e-03	6.9119255280e-05	3	true
0.125003940285    	DILUPBiCGStab	3.0417054880e-04	9.5623587870e-10	2	2.6457287060e-03	4.1582655850e-10	2	false	GAMG	8.2296785010e-03	6.5614170010e-05	3	true
0.125760027633    	DILUPBiCGStab	3.0369037540e-04	9.4916477700e-10	2	2.6334186710e-03	4.0613976470e-10	2	false	GAMG	8.2816760550e-03	6.9154602890e-05	3	true
0.126516236177    	DILUPBiCGStab	3.0315013620e-04	9.4707972290e-10	2	2.6208144580e-03	4.0226610320e-10	2	false	GAMG	8.2761244060e-03	6.5521408930e-05	3	true
0.12727256316     	DILUPBiCGStab	3.0264466210e-04	9.4027836590e-10	2	2.6077669820e-03	3.9703261090e-10	2	false	GAMG	8.3302869490e-03	6.8703495300e-05	3	true
0.128029005665    	DILUPBiCGStab	3.0205585130e-04	9.3737981440e-10	2	2.5963906580e-03	3.9982546960e-10	2	false	GAMG	8.2425356200e-03	6.6213315750e-05	3	true
0.128785560855    	DILUPBiCGStab	3.0153607310e-04	9.3098099540e-10	2	2.5828907310e-03	4.0129630880e-10	2	false	GAMG	8.2251836610e-03	6.9022747170e-05	3	true
0.129542225378    	DILUPBiCGStab	3.0095704590e-04	9.2866051200e-10	2	2.5702253220e-03	4.1612285330e-10	2	false	GAMG	8.2334776180e-03	6.5612097460e-05	3	true
0.130298996315    	DILUPBiCGStab	3.0042626330e-04	9.2249351110e-10	2	2.5570072040e-03	4.2317378150e-10	2	false	GAMG	8.2510721220e-03	6.8773424740e-05	3	true
0.131055870564    	DILUPBiCGStab	2.9983634290e-04	9.2033752410e-10	2	2.5452179350e-03	4.4916569170e-10	2	false	GAMG	8.2390043720e-03	6.5184929050e-05	3	true