/*--------------------------------*- C++ -*----------------------------------*\
| =========                 |                                                 |
| \\      /  F ield         | OpenFOAM: The Open Source CFD Toolbox           |
|  \\    /   O peration     | Version:  2512                                  |
|   \\  /    A nd           | Website:  www.openfoam.com                      |
|    \\/     M anipulation  |                                                 |
\*---------------------------------------------------------------------------*/
FoamFile
{
    version     2.0;
    format      ascii;
    arch        "LSB;label=32;scalar=64";
    class       volScalarField;
    location    "0";
    object      Cz;
}
// * * * * * * * * * * * * * * * * * * * * * * * * * * * * * * * * * * * * * //

dimensions      [0 1 0 0 0 0 0];

internalField   nonuniform List<scalar> 
10240
(
0
-2.0347115e-19
0
1.7085245e-19
0
0
2.5732422e-19
0
0
0
-1.8064554e-19
0
-1.4558931e-19
0
0
0
2.0191325e-19
-9.801078e-20
0
0
0
-2.6100235e-19
-5.9014938e-21
0
0
0
-8.6351169e-20
-2.2596504e-19
2.793289e-19
3.7766582e-19
0
-1.0726002e-19
1.8480011e-19
-9.012933e-20
0
2.1585133e-19
0
-1.1628e-19
1.0008031e-19
0
0
-8.6124089e-20
-1.4622103e-19
-5.8993336e-21
0
-1.1655284e-19
0
0
-8.372202e-20
0
7.5409219e-20
-2.5923817e-19
1.1541419e-19
1.1105611e-19
0
0
-1.6496319e-19
0
-1.3793128e-19
0
0
-5.8985788e-21
9.685621e-20
8.8762912e-20
-1.568796e-19
0
5.8984587e-21
0
0
0
9.219565e-20
1.631259e-19
-2.2074011e-19
1.3047391e-19
0
-4.4487723e-19
0
9.5741385e-20
3.3915955e-19
0
3.3506485e-19
-9.8427597e-20
0
0
0
0
0
0
-1.0454746e-19
0
4.5963953e-19
-3.4212059e-19
0
0
-1.1920241e-20
0
3.1423237e-19
-1.038667e-19
-1.7969683e-19
8.8451189e-20
-2.2136113e-19
-1.3928393e-19
0
0
-1.0854928e-19
0
-1.1920856e-20
-8.519406e-20
-2.9108539e-19
0
0
0
-1.0423969e-19
-1.8023785e-19
2.4207073e-19
0
0
-1.2812017e-19
0
2.1689916e-19
0
-8.0178377e-20
2.3113228e-19
1.5702414e-19
1.3328993e-19
-1.1060093e-19
0
0
0
-1.6443462e-19
0
0
1.2729646e-19
0
0
0
-1.7094158e-19
-1.4488202e-19
0
-1.321821e-19
0
0
-1.9379925e-19
0
-8.739801e-20
4.3640364e-19
0
0
0
2.9607391e-19
0
0
-3.1026361e-19
-2.8476057e-19
-2.6152691e-19
-3.4861968e-19
-1.105393e-19
0
-9.3755124e-20
1.4908916e-19
0
-1.0964053e-19
0
-2.5691198e-19
0
0
-1.3654491e-19
-1.2577093e-19
0
2.0188683e-19
0
-7.920573e-20
-7.231593e-20
0
-1.3244371e-19
2.3193737e-19
-3.3695623e-19
0
1.6721563e-19
0
0
0
-1.1917949e-20
0
1.1918274e-20
0
-2.5242956e-19
-1.5814078e-19
2.7859779e-19
-1.3350455e-19
0
-1.0108e-19
-1.9623271e-19
0
-1.651075e-19
2.2139051e-19
0
-2.4399533e-19
0
-5.0587235e-19
2.7552895e-19
-2.6409919e-19
0
1.192027e-20
1.3316812e-19
0
0
0
0
0
0
1.3845523e-19
-1.1529693e-19
1.1697634e-19
-1.0764309e-19
0
-2.5031839e-19
-7.2402662e-20
-1.4385376e-19
1.3212396e-19
-1.0951459e-19
-2.1147197e-19
2.8462517e-19
0
0
0
1.3716074e-19
-1.2601615e-19
-2.198035e-19
-2.9599176e-19
1.8444504e-19
-1.6908767e-19
0
2.8469924e-19
0
1.0823617e-19
-9.8598145e-20
-3.8311418e-19
-9.3740409e-20
-4.7103539e-19
3.2912767e-19
0
0
-1.617603e-19
1.478981e-19
1.4711063e-19
-1.2357724e-19
2.3777971e-19
2.1829965e-19
2.9475577e-19
-2.8220376e-19
9.0579628e-20
8.3758324e-20
1.3121729e-19
1.3172431e-19
1.3321189e-19
0
-2.8536115e-19
0
2.3968782e-19
0
0
-1.1536624e-19
0
9.6018928e-20
1.8709442e-19
0
2.3052796e-19
1.191692e-20
0
-1.2246202e-19
3.2624565e-19
0
0
-1.6474169e-19
8.1583372e-20
0
0
-1.1918676e-20
0
-8.7711993e-20
0
0
1.4475473e-19
1.210679e-19
-2.3259889e-19
0
-3.9041408e-19
0
-3.1635178e-19
-1.5063038e-19
1.3832049e-19
2.4228124e-19
0
0
9.9061055e-20
-3.2951989e-19
2.408773e-19
2.7558767e-19
1.2011695e-19
1.2136067e-19
0
1.027661e-19
0
0
2.8671839e-19
0
0
0
-9.4649419e-20
3.6874862e-19
7.8552732e-20
1.4312238e-19
1.192111e-20
0
2.2832578e-19
0
1.0171387e-19
0
3.8448821e-19
0
-2.2645979e-19
9.9186567e-20
0
1.5801803e-19
-1.4554427e-19
0
0
0
-1.9863795e-19
0
0
0
0
1.3078668e-19
0
0
0
0
0
0
-1.3763393e-19
-1.2665086e-19
0
0
2.7343256e-19
-1.7097709e-19
0
0
0
1.1915728e-20
1.0043986e-19
9.1599482e-20
2.6251411e-19
-7.6171966e-20
-8.1373376e-20
1.3857688e-19
0
1.1720357e-19
0
1.8692619e-19
9.1686639e-20
0
2.7704298e-19
-1.3274906e-19
1.2205208e-19
1.1229899e-19
9.1487938e-20
-4.407435e-19
8.7909692e-20
0
-2.6436598e-19
1.2694629e-19
1.1919627e-20
0
-1.740804e-19
0
0
0
0
0
3.1079635e-19
0
1.6540591e-19
1.1920459e-20
0
0
0
0
0
-1.8428065e-19
0
-5.3644664e-19
-1.4224343e-19
0
0
0
-3.7095789e-19
9.3689509e-20
0
0
-1.1895436e-20
0
0
1.5586515e-19
1.4365613e-19
0
0
0
1.1902936e-20
2.6496837e-19
-1.5423585e-19
5.8585655e-20
0
1.1774037e-19
0
1.1907844e-20
3.828918e-19
1.190901e-20
0
1.486441e-19
1.1910587e-20
0
0
0
0
-2.4917254e-19
0
0
0
-1.0961411e-19
-2.119008e-19
0
0
-1.6366947e-19
-1.5031508e-19
0
1.1916298e-20
1.1686409e-19
2.0330013e-19
0
1.7100877e-19
2.2947853e-19
0
0
2.3167561e-19
0
0
9.5132469e-20
1.6360935e-19
0
0
-2.4159233e-19
3.3780625e-19
2.9804574e-19
0
-1.7032899e-19
2.2844819e-19
0
0
2.4227827e-19
-3.1047839e-19
1.9327909e-19
2.7171047e-19
-7.5281858e-20
2.8628652e-19
1.3691019e-19
2.3967805e-19
0
1.0644889e-19
-4.6637156e-19
-9.0382833e-20
0
0
-2.6116073e-19
1.2002231e-19
0
-2.9299462e-19
0
-1.6083623e-19
0
0
2.7666059e-19
-8.9127354e-20
-2.2414387e-19
0
-2.4921153e-19
1.0862342e-19
0
-1.0287366e-19
1.7836335e-19
0
1.3925806e-19
0
0
-1.1832576e-19
0
0
0
-3.2060695e-19
1.3555556e-19
-3.9524992e-19
-2.3804979e-19
-4.3681821e-19
0
-9.7976157e-20
1.6904223e-19
0
0
-2.5083532e-19
0
1.1138156e-19
0
-3.5500931e-19
0
0
0
0
-3.2556176e-19
0
-9.8862116e-20
0
8.420842e-20
0
0
0
2.3834978e-20
-1.9405463e-19
0
0
-1.1918197e-20
0
-1.265302e-19
0
0
3.828312e-19
1.7007296e-19
2.2811504e-19
-2.7461426e-19
-2.513101e-19
0
0
0
-9.4448848e-20
-1.1919869e-20
0
3.9844152e-19
0
0
0
0
-2.4712829e-19
8.3351874e-20
1.1920497e-20
0
0
0
-1.0158876e-19
9.3610573e-20
1.6076232e-19
1.0998819e-19
-8.9967144e-20
0
0
-1.5065571e-19
-1.1892881e-20
-2.4498036e-19
-1.0676611e-19
2.0746939e-19
-3.8196347e-19
0
0
1.4922676e-19
0
-2.5367827e-19
-1.1902706e-20
-1.1903501e-20
-2.7557666e-19
-8.0345588e-20
-2.3221627e-19
0
0
1.1907666e-20
-1.1908267e-20
-1.9890096e-19
-1.8268562e-19
1.5594856e-19
8.3106715e-20
-1.1910929e-20
3.7985054e-19
2.2856537e-19
0
-1.0214495e-19
0
8.7047835e-20
0
-1.370001e-19
-1.1411181e-19
1.1600809e-19
1.0686316e-19
0
9.0898243e-20
-8.3946282e-20
1.43289e-19
0
1.1916701e-20
1.1151503e-19
0
9.4707555e-20
-8.7394572e-20
1.4953185e-19
1.1917903e-20
-1.2627157e-19
-2.3230918e-19
0
0
-2.4870893e-19
2.277322e-19
-2.8609025e-19
0
2.2973491e-19
2.2233737e-19
0
2.5918068e-19
7.510586e-20
-1.4879785e-19
-1.3664546e-19
0
-2.1903191e-19
1.0627691e-19
0
-6.6413597e-20
1.4274377e-19
4.259277e-19
-3.7932154e-19
3.477151e-19
1.1027857e-19
0
0
0
1.0157665e-19
0
-3.462807e-19
-8.5892585e-20
0
0
-1.1891674e-20
0
0
4.6371889e-19
-9.2503908e-20
-3.0722195e-19
-2.8233459e-19
1.35695e-19
0
-1.1560085e-19
1.0678431e-19
0
1.7068153e-19
0
0
0
0
1.132879e-19
0
-8.4639073e-20
2.4386853e-19
0
0
1.2971506e-19
-1.0756641e-19
0
0
0
0
-1.482512e-19
-1.3633051e-19
0
-1.1549959e-19
0
0
-4.1706556e-19
0
-2.7364429e-19
0
0
1.1117953e-19
1.0243337e-19
4.3651758e-19
-8.7173744e-20
0
1.3703253e-19
1.2598165e-19
1.1590262e-19
-1.067105e-19
1.1918212e-20
-6.6846773e-20
0
0
0
2.2935989e-19
-4.2018525e-19
0
-1.6459607e-19
-1.6191892e-19
0
1.1919603e-20
0
-2.1879225e-19
1.0617302e-19
0
-9.0176086e-20
8.3224709e-20
0
-1.1839288e-19
-1.1979131e-19
4.0505158e-19
0
0
0
9.9017865e-20
0
7.8629753e-20
3.0084724e-19
0
-2.6745021e-19
0
4.2235576e-19
0
0
9.1044534e-20
2.2954313e-19
1.1896634e-20
0
-2.3504967e-19
1.1899544e-20
1.9898631e-19
0
-9.0261098e-20
0
1.4308075e-19
1.1997981e-19
3.5296841e-19
-1.1222543e-19
1.0361685e-19
-2.6338794e-19
0
-8.1912476e-20
0
3.743901e-19
0
-1.093953e-19
0
9.319759e-20
-2.3455366e-19
0
-2.7119802e-19
0
0
0
1.8350145e-19
0
0
1.3030665e-19
2.4965132e-19
0
0
-1.9230928e-19
-1.1916502e-20
0
-1.4872622e-19
0
1.2566252e-19
0
0
0
2.4766784e-19
2.2682791e-19
0
-1.1918561e-20
0
0
0
-1.6432546e-19
0
0
1.2438959e-19
1.252782e-19
0
2.0019601e-19
0
-7.8169751e-20
0
0
-1.3020105e-19
1.1969433e-19
0
1.9086675e-19
9.3441923e-20
1.6047137e-19
5.9536875e-21
-9.5108942e-20
0
3.6395776e-19
-5.4164127e-19
0
1.1888485e-20
1.1227916e-19
-1.1890952e-20
-9.6488726e-20
0
-8.3098747e-20
0
0
2.5517926e-19
0
0
9.6281366e-20
-1.6643762e-19
-3.0676254e-19
-1.4140109e-19
0
0
0
3.8669452e-19
9.4867052e-20
0
0
0
1.2775157e-19
2.1170442e-19
0
-1.7669195e-19
0
2.3300506e-19
0
0
2.4823696e-19
0
-3.9782591e-19
-9.7252487e-20
0
-8.2986951e-20
0
0
-1.1988447e-19
-3.1932292e-19
1.0176594e-19
4.3361505e-19
3.1092345e-19
0
1.3626775e-19
0
0
-2.0049762e-19
-9.7890525e-20
1.6868909e-19
-8.3382822e-20
-1.4222266e-19
0
0
-3.1997174e-19
0
1.7594942e-19
0
2.8445586e-19
0
0
-3.3331454e-19
1.0593201e-19
-3.5462006e-19
0
0
-1.4158794e-19
0
-2.2725581e-19
9.8107047e-20
0
0
0
1.8149547e-19
2.5447317e-19
-4.8246456e-19
0
-2.6422425e-19
-1.2794706e-19
-1.1887583e-20
3.1808749e-19
0
0
4.0402345e-19
0
-1.400403e-19
-1.1757257e-19
-9.5944718e-20
0
1.0255368e-19
8.3085884e-20
-2.4029001e-19
3.7250045e-19
1.3964408e-19
0
0
-2.0791143e-19
0
0
0
-1.1907081e-20
2.7488459e-19
1.2668029e-19
0
0
9.953976e-20
-2.6402844e-19
-8.5061922e-20
1.1911364e-20
-1.3397756e-19
0
3.1730024e-19
0
0
-4.8859223e-19
0
2.7003933e-19
0
-1.0748144e-19
0
1.9087542e-19
0
0
2.9555999e-19
-1.3584202e-19
0
0
9.4009726e-20
0
1.6826477e-19
0
0
1.1918193e-20
-1.1996439e-19
4.1784111e-19
0
0
1.1918913e-20
2.8397677e-19
0
0
0
-1.1919488e-20
2.80511e-19
3.238122e-19
0
0
0
1.1947259e-19
-1.1920102e-20
0
-1.627557e-19
0
-2.6723472e-19
-4.1624635e-19
0
0
1.1884502e-20
0
-1.1599581e-19
1.0767474e-19
-2.7618141e-19
0
0
0
-1.1894065e-20
0
-3.4146721e-19
0
-1.0103899e-19
-2.6905584e-19
-2.3676943e-19
0
-1.1901582e-20
1.2727414e-19
0
0
-1.8910808e-19
9.3008077e-20
1.6035277e-19
-1.4773517e-19
1.3616671e-19
2.3921811e-19
0
0
0
2.5015238e-19
-1.5706693e-19
-2.7719576e-19
2.5429249e-19
0
0
0
-1.8060413e-19
4.0890893e-19
0
0
1.2910813e-19
2.3776347e-19
0
1.0100432e-19
-1.7450257e-19
1.602643e-19
-1.1916222e-20
0
-1.1263682e-19
-2.174032e-19
0
-8.5470288e-20
0
0
1.1917891e-20
-2.4834744e-19
0
2.2039081e-19
0
0
3.2171529e-19
-1.4769232e-19
0
-1.3665667e-19
3.204231e-19
9.3731303e-20
0
0
3.0769747e-19
0
0
-2.3869735e-19
-1.0981987e-19
2.914826e-19
1.7451465e-19
0
0
-1.5230607e-19
0
4.2458441e-19
2.5095488e-19
0
0
-2.9228283e-19
0
4.1963856e-19
-1.5754397e-19
0
-1.231097e-19
-1.1894859e-20
-2.0783047e-19
0
0
0
1.5942032e-19
0
-1.3597366e-19
2.3938169e-19
0
-1.1903629e-20
-1.8689124e-19
9.2034544e-20
0
0
0
0
0
2.0020875e-19
-8.6105861e-20
-1.5747118e-19
4.5572692e-19
0
0
1.3374159e-19
2.1277903e-19
-1.0366737e-19
0
0
2.9156265e-19
1.1914023e-20
0
1.1914675e-20
0
0
0
-1.5964238e-19
0
0
0
-4.3337233e-19
1.0531728e-19
-1.1917218e-20
0
1.4175699e-19
-1.4120225e-19
1.2982054e-19
2.269518e-19
-2.0799989e-19
-5.840465e-19
-8.1508554e-20
0
-2.9484426e-19
-1.3545123e-19
0
0
0
0
0
-2.2451054e-19
0
-1.2965002e-19
0
-3.1719603e-19
1.7822961e-19
-1.6242219e-19
3.1986704e-19
0
3.0729926e-19
1.4832659e-19
0
0
-1.1914436e-19
0
0
-9.5881114e-20
0
0
0
1.3247098e-19
-2.3365988e-19
1.0193163e-19
0
9.7949767e-20
-9.09257e-20
1.1899516e-20
1.4507859e-19
-1.1901191e-20
1.2398809e-19
1.1468787e-19
0
-2.7100348e-19
-7.9138666e-20
3.8630322e-19
0
0
1.1907481e-20
-2.156954e-19
4.9003504e-19
1.8253183e-19
2.5793762e-19
0
0
0
-1.3292344e-19
0
0
0
-1.6406371e-19
-2.2039708e-19
1.3886407e-19
-1.2785441e-19
0
1.9333805e-19
0
0
8.5456316e-20
1.1915992e-20
0
0
0
4.8920987e-19
-2.7857983e-19
0
1.4132711e-19
0
0
-2.263841e-19
-3.1721768e-19
1.0109881e-19
0
1.6022118e-19
0
-1.3520477e-19
-2.3671901e-19
2.1686111e-19
-2.9216509e-19
-2.6738904e-19
0
8.2676842e-20
-1.5282906e-19
-2.470589e-19
0
0
1.8993914e-19
0
0
0
0
1.4432877e-19
0
0
-1.188647e-20
9.6362424e-20
0
-1.7584197e-19
0
0
0
1.2996011e-19
-2.2920682e-19
-9.9958673e-20
0
0
0
-3.0917971e-19
0
0
0
0
0
-9.7134706e-20
0
-8.3524473e-20
0
0
-1.2203729e-19
-1.0084513e-19
0
0
0
0
2.7080545e-19
0
0
1.1089912e-19
0
0
0
0
-1.1913861e-20
2.4248655e-19
0
0
9.973518e-20
-8.0186307e-20
0
0
1.1916197e-20
1.3518883e-19
1.1916669e-20
0
0
0
-2.232407e-19
2.6896226e-19
2.4639521e-19
0
0
0
-9.3045414e-20
0
1.4684384e-19
1.34948e-19
0
0
0
1.8193795e-19
0
0
-1.1919678e-20
1.1919769e-20
0
3.0452991e-19
0
-4.2895696e-19
2.3345086e-19
0
0
0
0
-1.2510788e-19
0
-3.1313777e-19
-1.0091946e-19
1.759705e-19
0
-2.2087395e-19
-2.6849337e-19
-1.3007167e-19
0
0
0
0
-1.6731189e-19
-3.0935815e-19
1.4303117e-19
-1.1983849e-20
1.1981469e-20
0
9.2940913e-20
-9.720523e-20
1.197268e-20
8.3589535e-20
2.7447507e-19
2.5245172e-19
0
-2.136535e-19
0
-9.6463816e-20
-8.9289635e-20
2.2421822e-19
-1.4140279e-19
0
4.5696722e-19
2.0992565e-19
0
-8.2708713e-20
-3.2623859e-19
0
0
0
0
0
-9.9761767e-20
0
-1.7029672e-19
0
0
-2.4658736e-19
0
0
-1.8118048e-19
-2.4356427e-19
0
1.4045623e-19
0
0
0
0
9.3058375e-20
0
0
2.6991862e-19
0
0
0
-1.8194737e-19
0
2.2386555e-19
0
1.1927606e-20
0
1.1927088e-20
0
-1.1926615e-20
1.1926394e-20
1.6593503e-19
-7.3854602e-20
-1.4847972e-19
0
0
3.4582408e-19
-4.0763632e-19
-3.8868268e-19
-8.3991619e-20
-2.4407431e-19
0
1.4307694e-19
-1.3257892e-19
-1.1998853e-20
-2.1585927e-19
-1.9933601e-19
0
-9.1015043e-20
1.4510593e-19
0
-1.3417583e-19
1.3604282e-19
2.1754636e-19
0
0
-9.1108587e-20
0
0
-1.335661e-19
-1.2328655e-19
4.434574e-19
-3.9689282e-19
-1.8258041e-19
1.1956246e-20
8.3329404e-20
0
1.3129917e-19
1.3300189e-19
-1.1166756e-19
0
9.5215581e-20
1.1946167e-20
2.2042864e-19
-2.6584443e-19
0
0
-3.0194841e-19
0
9.2506578e-20
-8.547947e-20
-2.9235935e-19
1.3444922e-19
3.592657e-19
2.1595945e-19
0
2.7861521e-19
0
-2.2392437e-19
0
0
-2.2639821e-19
1.1931709e-20
2.7947255e-19
-9.3252272e-20
1.6023294e-19
0
0
1.2432929e-19
0
1.8683053e-19
2.6739797e-19
0
8.2684993e-20
0
3.7656311e-19
0
-2.0725503e-19
0
0
0
0
1.5230607e-19
0
0
0
-1.2019691e-20
1.1350976e-19
0
0
9.1178084e-20
1.5765582e-19
1.3393079e-19
0
1.1994798e-20
2.3181458e-19
-9.5425123e-20
0
-9.23796e-20
0
1.1979554e-20
-1.3604965e-19
-2.3945469e-19
0
1.1970927e-20
-8.7493444e-20
-9.2096529e-20
0
0
1.349063e-19
0
0
-2.0025694e-19
8.6105861e-20
-1.6942525e-19
0
0
1.1950143e-20
5.6153979e-19
2.1281467e-19
9.1754824e-20
0
1.5310668e-19
3.615048e-19
0
0
0
-1.0909484e-19
0
0
0
0
0
1.2416104e-19
1.1431978e-19
1.0533477e-19
3.7659551e-19
0
8.2811372e-20
-1.4121685e-19
0
3.3448196e-19
1.1931019e-20
0
0
0
-1.1929464e-20
0
-3.6170039e-19
0
0
1.1927875e-20
-1.5549503e-19
-8.2790964e-20
-1.192708e-20
0
0
-3.1720882e-19
-1.7822961e-19
0
0
1.7632765e-19
0
-1.5675358e-19
-1.202142e-20
0
1.2512638e-19
-1.1611997e-19
0
-1.0010218e-19
8.0996707e-20
0
0
1.2564094e-19
-1.1990499e-20
3.2966282e-19
1.0915523e-19
-1.0112378e-19
9.3733088e-20
1.4991303e-19
1.1975927e-20
-1.259272e-19
1.1971686e-20
-1.1764597e-19
1.1967733e-20
-1.891693e-19
-3.4833907e-19
0
0
2.6047789e-19
-2.392677e-19
0
-2.970596e-19
0
-3.2960826e-19
-1.5710692e-19
1.4459169e-19
2.5432915e-19
0
0
0
0
-4.0896778e-19
-2.2289168e-19
0
0
-2.3781273e-19
0
0
1.745241e-19
8.611072e-20
4.2991091e-19
1.3541019e-19
2.3720831e-19
2.1742038e-19
-1.0564602e-19
8.5470288e-20
0
-8.3016585e-20
0
0
0
0
0
0
-2.3533747e-19
-1.4770226e-19
1.1928559e-20
0
2.1759716e-19
1.1927677e-20
0
1.6765456e-19
2.2482046e-19
1.412764e-19
0
-2.2678366e-19
4.154514e-19
-2.9149404e-19
0
0
0
-2.5461506e-19
-2.354281e-19
1.4912413e-19
2.6435159e-19
-1.280698e-19
0
0
0
0
1.6408943e-19
0
1.4013425e-19
0
0
2.2173927e-19
-1.9328888e-19
-1.7814821e-19
0
8.171174e-20
-1.3971212e-19
-1.2893469e-19
0
0
0
8.2049507e-20
-2.3712004e-19
1.1957775e-20
2.7498174e-19
-1.2672682e-19
3.3865345e-19
2.9962494e-19
9.9580629e-20
-9.2018745e-20
-1.4630204e-19
1.1947215e-20
2.5607763e-19
-1.114774e-19
2.0359173e-19
1.0488804e-19
-9.6796829e-20
1.5492156e-19
0
0
0
1.1941951e-19
2.0808197e-19
1.0141655e-19
0
3.9622593e-19
1.4779835e-19
0
-1.1933637e-20
0
0
-1.8339011e-19
-1.6827875e-19
-1.6642319e-19
-2.7189846e-19
0
1.1929993e-20
3.074327e-19
0
0
-8.6545062e-20
0
0
0
2.060039e-19
0
9.7484216e-20
-3.2381922e-19
-8.2985936e-20
0
-1.1926059e-20
1.0755257e-19
0
-1.0123266e-19
-1.627557e-19
0
-1.8695937e-19
-8.3227292e-20
-8.8580018e-20
0
0
0
-1.2000075e-20
0
1.1994256e-20
8.4596596e-20
0
0
1.4258026e-19
0
2.4344455e-19
0
5.7671695e-19
0
2.5574514e-19
3.0689505e-19
-1.4146463e-19
0
0
-9.9189597e-20
-3.8680183e-19
-9.4918467e-20
0
-1.5063652e-19
-1.3871164e-19
0
4.5926124e-19
0
1.7669195e-19
0
-7.3697901e-20
-1.4654437e-19
-2.6968833e-19
1.2414892e-19
1.1437383e-19
3.9788162e-19
-1.7067742e-19
0
3.6730128e-19
0
2.6056121e-19
0
2.0893041e-19
0
-2.5780438e-19
1.614377e-19
0
0
-1.2533197e-19
-3.3408481e-19
0
0
1.6870201e-19
-8.3395157e-20
2.8446889e-19
0
1.1929259e-20
0
-1.0190705e-19
-1.7595879e-19
0
1.1927709e-20
1.1927439e-20
0
2.1824397e-19
0
0
9.0001559e-20
0
-1.4159385e-19
-1.1815815e-19
2.2726119e-19
3.1817178e-19
-1.0131878e-19
1.7483039e-19
0
-9.9148834e-20
0
-1.6926552e-19
3.009642e-19
-1.3269724e-19
0
-3.4748591e-19
-5.3706325e-19
-5.0663552e-19
-9.8314936e-20
1.7028339e-19
-1.5707927e-19
-2.8988581e-19
-1.3379186e-19
0
0
1.9905579e-19
0
9.0324992e-20
0
0
0
-1.1959126e-20
0
1.8342058e-19
-9.5781506e-20
-8.8563005e-20
8.1955925e-20
0
-1.1685702e-19
4.5085127e-19
-9.748475e-20
-5.58028e-19
1.625722e-19
-4.691712e-19
0
2.7125646e-19
-2.4966563e-19
0
0
9.7732268e-20
0
0
1.4224317e-19
-1.1886793e-19
0
0
0
-2.7064152e-19
7.5014273e-20
-1.4874176e-19
-1.3668037e-19
-1.256767e-19
0
0
-1.8433068e-19
0
2.2683919e-19
0
-1.1904904e-19
2.2895556e-19
-2.0974247e-19
-1.1927929e-20
-2.5841584e-19
-1.4976475e-19
0
0
0
0
0
1.8349416e-19
-1.6826532e-19
0
1.4173521e-19
-2.4848712e-19
0
0
-1.9087123e-19
-9.34462e-20
-2.3475091e-19
-1.0169793e-19
-1.8763176e-19
-1.7325264e-19
-8.6000574e-20
0
1.199025e-20
-1.2624231e-19
1.198498e-20
1.0799831e-19
-9.9965793e-20
8.060774e-20
-8.5806649e-20
2.8240968e-19
0
-1.3725297e-19
-2.19367e-19
-1.0684783e-19
0
-1.7073988e-19
-3.0235788e-19
0
0
0
-1.1333496e-19
0
-9.6590402e-20
0
-7.0624764e-20
1.4095074e-19
1.2975124e-19
2.2707829e-19
0
0
0
1.6133013e-19
1.482789e-19
1.244171e-19
-1.2546807e-19
1.1552381e-19
1.0644329e-19
-3.6873585e-19
9.0583311e-20
0
-2.7366361e-19
0
0
-2.1045948e-19
9.0516706e-20
0
8.7188445e-20
0
0
-1.2599447e-19
-1.1591486e-19
-2.9630711e-19
-9.833892e-20
0
8.3723271e-20
1.4280586e-19
0
0
0
1.1927268e-20
0
1.4999952e-19
0
0
1.1351177e-19
2.1879838e-19
0
0
-2.4669352e-19
-8.3229805e-20
0
1.3031778e-19
1.0787099e-19
-8.6358181e-20
8.9545632e-20
2.6860107e-19
0
2.0218194e-19
0
0
0
-1.5074992e-19
0
-2.5704813e-19
-1.1874464e-19
0
-2.8060076e-19
0
0
0
-2.6325769e-19
0
1.0512248e-19
1.196065e-20
0
0
-4.6453299e-19
0
0
-1.1951744e-20
0
1.9894133e-19
0
-1.5594856e-19
3.0867672e-19
1.4194587e-19
0
-2.2859632e-19
0
-1.0217326e-19
9.428153e-20
1.6220809e-19
1.1938568e-20
0
1.1937114e-20
1.160297e-19
0
-9.8535918e-20
-9.0917105e-20
0
-1.1933444e-20
2.5152495e-19
0
0
0
-1.6558042e-19
-8.7407666e-20
2.9908871e-19
0
0
-2.2040184e-19
4.0390187e-19
0
-1.5786016e-19
0
0
-1.3143065e-19
-2.297428e-19
0
0
-9.4346779e-20
0
-1.4880411e-19
0
-1.2557558e-19
0
1.0628212e-19
0
9.0258738e-20
0
-1.4198022e-19
-2.4891169e-19
0
-2.0864039e-19
0
-9.3564325e-20
0
0
0
0
-8.9214591e-20
-2.2422761e-19
0
-1.1974019e-20
1.2059531e-19
0
-1.9391546e-19
-9.5197235e-20
-1.5226742e-19
2.2084941e-19
0
-2.4479902e-19
0
0
-1.0084003e-19
1.743848e-19
0
0
0
-2.3808856e-19
0
0
0
0
0
-1.194186e-20
2.5086372e-19
-1.1940133e-20
0
0
1.8946619e-19
0
1.1936416e-20
0
0
3.3751522e-19
0
-2.727713e-19
2.4978189e-19
8.4224186e-20
1.437597e-19
-2.5231515e-19
2.3108734e-19
0
0
-9.4946397e-20
0
0
1.3767413e-19
1.2654017e-19
0
1.0713375e-19
9.869621e-20
-7.9076955e-20
2.2812296e-19
-2.7462182e-19
0
-1.2100086e-19
-2.1071399e-19
0
0
0
0
0
0
0
0
-1.1924652e-20
0
0
-2.8416567e-19
-2.490894e-19
0
-2.08773e-19
-1.0159189e-19
-9.3613563e-20
-7.4420764e-20
0
-1.9955728e-19
-2.6964485e-19
-9.0611104e-20
8.395427e-20
1.5569452e-19
0
-2.3254792e-19
1.1963299e-20
-1.1961562e-20
0
0
0
1.4080255e-19
-2.4743456e-19
0
0
0
0
-8.6819998e-20
1.3673401e-19
-1.2484006e-19
1.2591321e-19
0
0
-1.8526689e-19
7.9086578e-20
-2.2843993e-19
0
-2.6418119e-19
-1.215516e-19
0
0
0
-1.6368884e-19
1.5033359e-19
2.6435919e-19
0
2.2182779e-19
-2.0331555e-19
-4.6010346e-19
9.1477062e-20
-1.4504075e-19
-1.4415586e-19
0
2.4361701e-19
0
0
9.5142679e-20
0
-1.5018233e-19
0
1.1483667e-19
-1.1658323e-19
1.0730248e-19
0
0
0
0
-1.1925887e-20
0
0
1.9328443e-19
-1.7717206e-19
7.5281858e-20
0
-1.2498991e-19
-3.5356115e-19
0
-1.0645276e-19
0
0
-2.2637294e-19
-1.4217158e-19
-1.1923793e-20
0
0
0
0
-7.4457647e-20
-2.1446544e-19
1.0734828e-19
-9.925229e-20
-7.9862701e-20
0
0
-1.3416979e-19
0
0
-1.9868669e-19
0
-8.9920302e-20
0
0
-2.6165174e-19
1.1947503e-20
-4.2046995e-19
1.929996e-19
-9.4594426e-20
-1.6284492e-19
1.3774365e-19
0
1.2667834e-19
0
0
9.9111008e-20
-1.7100005e-19
0
0
0
0
-1.1237416e-19
-1.9513271e-19
0
0
8.1388636e-20
1.3859146e-19
0
5.6222266e-19
-1.0791659e-19
-8.7504136e-20
-7.976855e-20
0
-2.7705356e-19
0
1.2206173e-19
8.8452112e-20
0
0
-1.7583543e-19
0
-2.643733e-19
3.6893331e-19
1.1926299e-20
0
-9.8966092e-20
-3.4110204e-19
3.1293031e-19
0
2.638567e-19
0
-4.2235119e-19
-3.8693469e-19
9.4627554e-20
0
1.4922683e-19
0
-1.1924108e-20
1.1923999e-20
4.0222945e-19
-8.6179945e-20
9.0436061e-20
1.430526e-19
0
0
-4.5647621e-19
-2.0898362e-19
-1.9144165e-19
0
0
0
0
0
1.617603e-19
1.478981e-19
0
-1.3552995e-19
-1.1293511e-19
0
2.9479418e-19
1.8420227e-19
9.0614809e-20
-2.9933127e-19
2.7437912e-19
-2.5156672e-19
-3.4009956e-19
0
2.8538813e-19
0
0
1.193842e-20
0
2.4266947e-19
0
3.1192812e-19
4.618156e-19
-9.1828516e-20
-8.4804317e-20
1.4485377e-19
0
0
1.0080353e-19
0
0
0
-2.3285577e-19
2.6597562e-19
0
-1.1929085e-20
-1.0815392e-19
0
-2.637041e-19
8.4799058e-20
-1.3283543e-19
1.3299521e-19
-2.3260643e-19
0
0
-8.3516338e-20
7.6107974e-20
0
-1.3832621e-19
1.2710614e-19
3.2678903e-19
2.9882908e-19
0
0
0
2.755918e-19
-1.1924507e-20
-1.2136444e-19
-4.2269193e-19
0
0
-1.6273661e-19
-1.493226e-19
0
0
0
2.0122231e-19
-2.7060333e-19
0
3.6972919e-19
-1.1923169e-20
0
0
0
0
0
8.6436205e-20
0
0
0
-9.3615307e-20
2.3585952e-19
0
0
-1.1944616e-20
0
0
0
0
0
0
1.3246591e-19
2.319586e-19
-3.1314297e-19
-1.0356114e-19
1.6721563e-19
0
2.20736e-19
0
0
-1.1932929e-20
0
0
2.5244249e-19
-7.3111036e-20
-1.4527012e-19
0
1.192987e-20
-2.140895e-19
0
0
0
0
1.192791e-20
-2.4400315e-19
0
2.0474007e-19
0
0
8.4916729e-20
1.1926202e-20
-1.3317379e-19
0
1.1262081e-19
0
-1.791628e-19
0
8.1357388e-20
0
-1.3914628e-19
0
-1.0764666e-19
-9.9141045e-20
4.2117745e-19
-2.2913205e-19
0
0
-1.2143835e-19
-2.1147455e-19
-1.818027e-19
0
8.7371732e-20
0
0
0
3.2374648e-19
-1.0661322e-19
-1.8444674e-19
1.6908929e-19
-3.1019574e-19
0
0
-1.2015889e-19
1.1052083e-19
0
0
4.7103762e-19
-3.2907839e-19
8.6484742e-20
0
0
0
-1.4916544e-19
-1.2534714e-19
-1.1937983e-20
0
-1.0740039e-19
0
9.1505476e-20
0
-1.4452668e-19
1.1933636e-20
1.2236622e-19
1.1932613e-20
0
-1.7970802e-19
-8.8461887e-20
-4.4274271e-19
-1.3929371e-19
1.2809924e-19
3.2978701e-19
0
1.0004907e-19
9.2285181e-20
0
1.455498e-19
0
2.4600731e-19
0
1.0424561e-19
-1.8024351e-19
0
8.1856522e-20
-1.3941012e-19
0
2.3567053e-19
-2.1690775e-19
1.1925359e-20
-2.5246032e-19
0
0
0
2.3312646e-19
0
3.9121177e-19
3.5859849e-19
0
-8.1408253e-20
0
1.2729881e-19
-1.0512328e-19
-3.111903e-19
0
-1.7094353e-19
0
1.3199926e-19
1.321838e-19
1.214877e-19
2.2348364e-19
1.9380073e-19
0
0
-1.4944302e-19
1.1922803e-20
1.2605414e-19
-1.1589537e-19
0
0
0
0
1.4238117e-19
0
1.3210367e-19
0
0
4.4493446e-19
0
-6.0278092e-21
1.1934537e-20
1.0220024e-19
9.4406612e-20
-1.6261873e-19
1.1932482e-20
-1.2570953e-19
-3.6826076e-19
0
2.033413e-19
0
3.3094668e-19
-7.2794654e-20
0
2.5444176e-19
1.2257497e-19
0
-2.8825322e-19
-3.599735e-19
0
0
1.1926978e-20
0
3.5406272e-19
0
0
0
-1.4670951e-19
0
0
-1.2310894e-19
-1.013597e-19
-2.8912506e-19
-1.6845843e-19
-1.6548091e-19
0
1.1924364e-20
-1.1628e-19
-1.0597999e-19
9.6589572e-20
-6.4004928e-19
9.2148444e-20
-2.4317899e-19
0
1.3335281e-19
0
1.0083211e-19
0
-9.5645254e-20
8.8209731e-20
0
0
-1.2733716e-19
2.3416039e-19
0
-8.7293324e-20
0
7.2460247e-20
0
1.3221211e-19
1.2151219e-19
-1.1176298e-19
-9.0957657e-20
-9.4786855e-20
0
0
-1.3722518e-19
0
-1.9605463e-19
1.8946222e-19
-1.845168e-19
0
3.8191402e-19
-2.7287e-19
0
0
1.1054959e-19
0
-1.6368151e-19
-1.6102374e-19
0
0
-1.9245887e-19
0
8.726887e-20
0
0
0
0
0
-9.9295765e-20
7.9754178e-20
-1.5751402e-19
-1.4479736e-19
2.5443728e-19
-1.2257069e-19
1.192422e-20
0
9.5953508e-20
-2.538093e-19
-3.0353103e-19
1.3947406e-19
1.1633217e-19
-1.1801793e-19
-2.054277e-19
0
8.0450257e-20
0
-1.3376379e-19
-1.2195491e-19
1.2310678e-19
-1.1328268e-19
1.0432298e-19
0
-8.8700962e-20
-2.2187417e-19
1.3949993e-19
0
-1.192263e-20
-5.0679304e-19
-9.9951327e-20
9.2147138e-20
-1.4622103e-19
-1.4517378e-19
-1.3335167e-19
1.1922376e-20
-3.2634103e-19
0
1.192229e-20
0
-5.1041626e-19
0
-1.1541419e-19
-4.4447344e-19
4.1900851e-19
0
9.1454339e-20
-2.2930283e-19
0
2.5250103e-19
-1.095896e-19
-1.1922027e-20
2.8479498e-19
9.4786383e-20
-1.509811e-19
2.9893311e-19
0
0
0
0
0
-2.4776321e-19
8.353582e-20
0
0
-3.3673234e-19
-2.0917679e-19
0
1.6368151e-19
0
3.3506485e-19
-9.8427597e-20
0
0
0
0
0
0
-1.0454746e-19
0
4.5963953e-19
-3.4212059e-19
0
0
-1.1920241e-20
0
3.1423237e-19
-1.038667e-19
-1.7969683e-19
8.8451189e-20
-2.2136113e-19
-1.3928393e-19
0
0
-1.0854928e-19
0
-1.1920856e-20
-8.519406e-20
-2.9108539e-19
0
0
0
-1.0423969e-19
-1.8023785e-19
2.4207073e-19
0
0
-1.2812017e-19
0
2.1689916e-19
0
-8.0178377e-20
2.3113228e-19
1.5702414e-19
1.3328993e-19
-1.1060093e-19
0
0
0
-1.6443462e-19
0
0
1.2729646e-19
0
0
0
-1.7094158e-19
-1.4488202e-19
0
-1.321821e-19
0
0
-1.9379925e-19
0
-8.739801e-20
4.3640364e-19
0
0
0
2.9607391e-19
0
0
-3.1026361e-19
-2.8476057e-19
-2.6152691e-19
-3.4861968e-19
-1.105393e-19
0
-9.3755124e-20
1.4908916e-19
0
-1.0964053e-19
0
-2.5691198e-19
0
0
-1.3654491e-19
-1.2577093e-19
0
2.0188683e-19
0
-7.920573e-20
-7.231593e-20
0
-1.3244371e-19
2.3193737e-19
-3.3695623e-19
0
1.6721563e-19
0
0
0
-1.1917949e-20
0
1.1918274e-20
0
-2.5242956e-19
-1.5814078e-19
2.7859779e-19
-1.3350455e-19
0
-1.0108e-19
-1.9623271e-19
0
-1.651075e-19
2.2139051e-19
0
-2.4399533e-19
0
-5.0587235e-19
2.7552895e-19
-2.6409919e-19
0
1.192027e-20
1.3316812e-19
0
0
0
0
0
0
1.3845523e-19
-1.1529693e-19
1.1697634e-19
-1.0764309e-19
0
-2.5031839e-19
-7.2402662e-20
-1.4385376e-19
1.3212396e-19
-1.0951459e-19
-2.1147197e-19
2.8462517e-19
0
0
0
1.3716074e-19
-1.2601615e-19
-2.198035e-19
-2.9599176e-19
1.8444504e-19
-1.6908767e-19
0
2.8469924e-19
0
1.0823617e-19
-9.8598145e-20
-3.8311418e-19
-9.3740409e-20
-4.7103539e-19
3.2912767e-19
0
0
-1.617603e-19
1.478981e-19
1.4711063e-19
-1.2357724e-19
2.3777971e-19
2.1829965e-19
2.9475577e-19
-2.8220376e-19
9.0579628e-20
8.3758324e-20
1.3121729e-19
1.3172431e-19
1.3321189e-19
0
-2.8536115e-19
0
2.3968782e-19
0
0
-1.1536624e-19
0
9.6018928e-20
1.8709442e-19
0
2.3052796e-19
1.191692e-20
0
-1.2246202e-19
3.2624565e-19
0
0
-1.6474169e-19
8.1583372e-20
0
0
-1.1918676e-20
0
-8.7711993e-20
0
0
1.4475473e-19
1.210679e-19
-2.3259889e-19
0
-3.9041408e-19
0
-3.1635178e-19
-1.5063038e-19
1.3832049e-19
2.4228124e-19
0
0
9.9061055e-20
-3.2951989e-19
2.408773e-19
2.7558767e-19
1.2011695e-19
1.2136067e-19
0
1.027661e-19
0
0
2.8671839e-19
0
0
0
-9.4649419e-20
3.6874862e-19
7.8552732e-20
1.4312238e-19
1.192111e-20
0
2.2832578e-19
0
1.0171387e-19
0
3.8448821e-19
0
-2.2645979e-19
9.9186567e-20
0
1.5801803e-19
-1.4554427e-19
0
0
0
-1.9863795e-19
0
0
0
0
1.3078668e-19
0
0
0
0
0
0
-1.3763393e-19
-1.2665086e-19
0
0
2.7343256e-19
-1.7097709e-19
0
0
0
1.1915728e-20
1.0043986e-19
9.1599482e-20
2.6251411e-19
-7.6171966e-20
-8.1373376e-20
1.3857688e-19
0
1.1720357e-19
0
1.8692619e-19
9.1686639e-20
0
2.7704298e-19
-1.3274906e-19
1.2205208e-19
1.1229899e-19
9.1487938e-20
-4.407435e-19
8.7909692e-20
0
-2.6436598e-19
1.2694629e-19
1.1919627e-20
0
-1.740804e-19
0
0
0
0
0
3.1079635e-19
0
1.6540591e-19
1.1920459e-20
0
0
0
0
0
-1.8428065e-19
0
-5.3644664e-19
-1.4224343e-19
0
0
0
-3.7095789e-19
9.3689509e-20
0
0
-1.1895436e-20
0
0
1.5586515e-19
1.4365613e-19
0
0
0
1.1902936e-20
2.6496837e-19
-1.5423585e-19
5.8585655e-20
0
1.1774037e-19
0
1.1907844e-20
3.828918e-19
1.190901e-20
0
1.486441e-19
1.1910587e-20
0
0
0
0
-2.4917254e-19
0
0
0
-1.0961411e-19
-2.119008e-19
0
0
-1.6366947e-19
-1.5031508e-19
0
1.1916298e-20
1.1686409e-19
2.0330013e-19
0
1.7100877e-19
2.2947853e-19
0
0
2.3167561e-19
0
0
9.5132469e-20
1.6360935e-19
0
0
-2.4159233e-19
3.3780625e-19
2.9804574e-19
0
-1.7032899e-19
2.2844819e-19
0
0
2.4227827e-19
-3.1047839e-19
1.9327909e-19
2.7171047e-19
-7.5281858e-20
2.8628652e-19
1.3691019e-19
2.3967805e-19
0
1.0644889e-19
-4.6637156e-19
-9.0382833e-20
0
0
-2.6116073e-19
1.2002231e-19
0
-2.9299462e-19
0
-1.6083623e-19
0
0
2.7666059e-19
-8.9127354e-20
-2.2414387e-19
0
-2.4921153e-19
1.0862342e-19
0
-1.0287366e-19
1.7836335e-19
0
1.3925806e-19
0
0
-1.1832576e-19
0
0
0
-3.2060695e-19
1.3555556e-19
-3.9524992e-19
-2.3804979e-19
-4.3681821e-19
0
-9.7976157e-20
1.6904223e-19
0
0
-2.5083532e-19
0
1.1138156e-19
0
-3.5500931e-19
0
0
0
0
-3.2556176e-19
0
-9.8862116e-20
0
8.420842e-20
0
0
0
2.3834978e-20
-1.9405463e-19
0
0
-1.1918197e-20
0
-1.265302e-19
0
0
3.828312e-19
1.7007296e-19
2.2811504e-19
-2.7461426e-19
-2.513101e-19
0
0
0
-9.4448848e-20
-1.1919869e-20
0
3.9844152e-19
0
0
0
0
-2.4712829e-19
8.3351874e-20
1.1920497e-20
0
0
0
-1.0158876e-19
9.3610573e-20
1.6076232e-19
1.0998819e-19
-8.9967144e-20
0
0
-1.5065571e-19
-1.1892881e-20
-2.4498036e-19
-1.0676611e-19
2.0746939e-19
-3.8196347e-19
0
0
1.4922676e-19
0
-2.5367827e-19
-1.1902706e-20
-1.1903501e-20
-2.7557666e-19
-8.0345588e-20
-2.3221627e-19
0
0
1.1907666e-20
-1.1908267e-20
-1.9890096e-19
-1.8268562e-19
1.5594856e-19
8.3106715e-20
-1.1910929e-20
3.7985054e-19
2.2856537e-19
0
-1.0214495e-19
0
8.7047835e-20
0
-1.370001e-19
-1.1411181e-19
1.1600809e-19
1.0686316e-19
0
9.0898243e-20
-8.3946282e-20
1.43289e-19
0
1.1916701e-20
1.1151503e-19
0
9.4707555e-20
-8.7394572e-20
1.4953185e-19
1.1917903e-20
-1.2627157e-19
-2.3230918e-19
0
0
-2.4870893e-19
2.277322e-19
-2.8609025e-19
0