/*--------------------------------*- C++ -*----------------------------------*\
| =========                 |                                                 |
| \\      /  F ield         | OpenFOAM: The Open Source CFD Toolbox           |
|  \\    /   O peration     | Version:  2512                                  |
|   \\  /    A nd           | Website:  www.openfoam.com                      |
|    \\/     M anipulation  |                                                 |
\*---------------------------------------------------------------------------*/
FoamFile
{
    version     2.0;
    format      ascii;
    arch        "LSB;label=32;scalar=64";
    class       volVectorField;
    location    "0";
    object      C;
}
// * * * * * * * * * * * * * * * * * * * * * * * * * * * * * * * * * * * * * //

dimensions      [0 1 0 0 0 0 0];

internalField   nonuniform List<vector> 
10240
(
(0.0061005368 0.00015052029 0)
(0.0063123308 0.00015718693 -2.0347115e-19)
(0.0065342489 0.00016417225 0)
(0.0067667752 0.00017149149 1.7085245e-19)
(0.0070104167 0.0001791606 0)
(0.0072657048 0.00018719631 0)
(0.0075331962 0.00019561614 2.5732422e-19)
(0.0078134743 0.00020443846 0)
(0.0081071502 0.0002136825 0)
(0.0084148645 0.00022336843 0)
(0.0087372881 0.00023351737 -1.8064554e-19)
(0.0090751243 0.00024415145 0)
(0.0094291097 0.00025529385 -1.4558931e-19)
(0.0098000163 0.00026696889 0)
(0.010188653 0.00027920202 0)
(0.010595868 0.00029201992 0)
(0.011022548 0.00030545054 2.0191325e-19)
(0.011469624 0.00031952317 -9.801078e-20)
(0.011938071 0.0003342685 0)
(0.012428911 0.00034971869 0)
(0.012943215 0.00036590743 0)
(0.013482103 0.00038287002 -2.6100235e-19)
(0.014046751 0.00040064346 -5.9014938e-21)
(0.01463839 0.00041926651 0)
(0.015258311 0.00043877978 0)
(0.015907866 0.00045922582 0)
(0.01658847 0.00048064922 -8.6351169e-20)
(0.017301609 0.00050309671 -2.2596504e-19)
(0.018048838 0.00052661723 2.793289e-19)
(0.018831785 0.00055126209 3.7766582e-19)
(0.019652159 0.00057708501 0)
(0.020511748 0.00060414233 -1.0726002e-19)
(0.021412428 0.00063249304 1.8480011e-19)
(0.022356161 0.00066219897 -9.012933e-20)
(0.023345008 0.00069332491 0)
(0.024381123 0.00072593873 2.1585133e-19)
(0.025466766 0.00076011156 0)
(0.026604306 0.00079591792 -1.1628e-19)
(0.027796222 0.00083343589 1.0008031e-19)
(0.029045114 0.0008727473 0)
(0.030353706 0.00091393788 0)
(0.031724852 0.00095709745 -8.6124089e-20)
(0.03316154 0.0010023201 -1.4622103e-19)
(0.034666906 0.0010497046 -5.8993336e-21)
(0.036244231 0.0010993541 0)
(0.037896955 0.0011513769 -1.1655284e-19)
(0.039628683 0.0012058865 0)
(0.041443191 0.0012630019 0)
(0.043344436 0.0013228474 -8.372202e-20)
(0.045336565 0.0013855537 0)
(0.047423922 0.0014512575 7.5409219e-20)
(0.049611058 0.001520102 -2.5923817e-19)
(0.051902744 0.0015922375 1.1541419e-19)
(0.054303977 0.0016678211 1.1105611e-19)
(0.056819994 0.0017470179 0)
(0.059456282 0.0018300004 0)
(0.06221859 0.0019169496 -1.6496319e-19)
(0.065112942 0.0020080552 0)
(0.06814565 0.0021035158 -1.3793128e-19)
(0.071323327 0.0022035396 0)
(0.074652904 0.0023083448 0)
(0.078141641 0.0024181598 -5.8985788e-21)
(0.081797147 0.0025332243 9.685621e-20)
(0.085627394 0.0026537891 8.8762912e-20)
(0.089640734 0.0027801171 -1.568796e-19)
(0.093845921 0.0029124838 0)
(0.098252123 0.003051178 5.8984587e-21)
(0.10286895 0.003196502 0)
(0.10770647 0.0033487728 0)
(0.11277524 0.0035083224 0)
(0.1180863 0.0036754989 9.219565e-20)
(0.12365124 0.0038506667 1.631259e-19)
(0.1294822 0.0040342079 -2.2074011e-19)
(0.13559189 0.0042265228 1.3047391e-19)
(0.14199364 0.0044280307 0)
(0.1487014 0.0046391711 -4.4487723e-19)
(0.15572981 0.0048604044 0)
(0.16309419 0.0050922131 9.5741385e-20)
(0.1708106 0.0053351028 3.3915955e-19)
(0.17889587 0.0055896031 0)
(0.0060860893 0.00045120538 3.3506485e-19)
(0.0062979008 0.00047120576 -9.8427597e-20)
(0.0065198373 0.0004921622 0)
(0.0067523829 0.00051412039 0)
(0.0069960446 0.00053712824 0)
(0.0072513538 0.0005612359 0)
(0.0075188673 0.00058649596 0)
(0.0077991684 0.00061296351 0)
(0.0080928686 0.00064069625 -1.0454746e-19)
(0.0084006081 0.00066975467 0)
(0.0087230583 0.00070020215 4.5963953e-19)
(0.0090609222 0.00073210507 -3.4212059e-19)
(0.0094149367 0.00076553302 0)
(0.0097858738 0.0008005589 0)
(0.010174542 0.00083725908 -1.1920241e-20)
(0.01058179 0.0008757136 0)
(0.011008505 0.00091600633 3.1423237e-19)
(0.011455618 0.00095822513 -1.038667e-19)
(0.011924104 0.0010024621 -1.7969683e-19)
(0.012414984 0.0010488136 8.8451189e-20)
(0.01292933 0.0010973809 -2.2136113e-19)
(0.013468262 0.0011482698 -1.3928393e-19)
(0.014032956 0.0012015912 0)
(0.014624644 0.0012574616 0)
(0.015244616 0.0013160026 -1.0854928e-19)
(0.015894224 0.0013773421 0)
(0.016574884 0.0014416137 -1.1920856e-20)
(0.017288081 0.0015089576 -8.519406e-20)
(0.01803537 0.0015795206 -2.9108539e-19)
(0.018818382 0.0016534568 0)
(0.019638822 0.0017309272 0)
(0.020498482 0.0018121009 0)
(0.021399235 0.0018971548 -1.0423969e-19)
(0.022343046 0.0019862745 -1.8023785e-19)
(0.023331973 0.0020796543 2.4207073e-19)
(0.024368173 0.0021774979 0)
(0.025453905 0.0022800185 0)
(0.026591538 0.0023874399 -1.2812017e-19)
(0.027783551 0.0024999962 0)
(0.029032545 0.002617933 2.1689916e-19)
(0.030341244 0.0027415073 0)
(0.031712501 0.0028709888 -8.0178377e-20)
(0.033149307 0.0030066597 2.3113228e-19)
(0.034654796 0.003148816 1.5702414e-19)
(0.036232249 0.0032977677 1.3328993e-19)
(0.037885109 0.0034538395 -1.1060093e-19)
(0.039616978 0.0036173719 0)
(0.041431634 0.0037887215 0)
(0.043333035 0.0039682619 0)
(0.045325326 0.0041563848 -1.6443462e-19)
(0.047412853 0.0043535003 0)
(0.049600168 0.0045600383 0)
(0.051892041 0.0047764493 1.2729646e-19)
(0.05429347 0.0050032051 0)
(0.056809693 0.0052408003 0)
(0.059446196 0.0054897531 0)
(0.062208729 0.0057506063 -1.7094158e-19)
(0.065103317 0.0060239289 -1.4488202e-19)
(0.068136272 0.0063103168 0)
(0.071314209 0.0066103946 -1.321821e-19)
(0.074644058 0.0069248168 0)
(0.07813308 0.007254269 0)
(0.081788884 0.0075994697 -1.9379925e-19)
(0.085619444 0.0079611717 0)
(0.089633112 0.0083401638 -8.739801e-20)
(0.093838641 0.0087372724 4.3640364e-19)
(0.098245203 0.0091533637 0)
(0.10286241 0.009589345 0)
(0.10770033 0.010046167 0)
(0.1127695 0.010524826 2.9607391e-19)
(0.118081 0.011026366 0)
(0.1236464 0.011551881 0)
(0.12947783 0.012102516 -3.1026361e-19)
(0.13558802 0.012679473 -2.8476057e-19)
(0.14199029 0.013284009 -2.6152691e-19)
(0.1486986 0.013917444 -3.4861968e-19)
(0.15572758 0.014581158 -1.105393e-19)
(0.16309256 0.015276599 0)
(0.1708096 0.016005283 -9.3755124e-20)
(0.17889553 0.016768801 1.4908916e-19)
(0.0060572293 0.00075082491 0)
(0.0062690759 0.00078416039 -1.0964053e-19)
(0.0064910492 0.00081908935 0)
(0.0067236332 0.00085568799 -2.5691198e-19)
(0.0069673351 0.0008940361 0)
(0.0072226864 0.00093421733 0)
(0.007490244 0.00097631929 -1.3654491e-19)
(0.0077705913 0.0010204338 -1.2577093e-19)
(0.0080643398 0.0010666571 0)
(0.00837213 0.0011150899 2.0188683e-19)
(0.0086946331 0.0011658379 0)
(0.0090325525 0.0012190118 -7.920573e-20)
(0.0093866251 0.0012747274 -7.231593e-20)
(0.009757623 0.0013331064 0)
(0.010146355 0.001394276 -1.3244371e-19)
(0.01055367 0.0014583697 2.3193737e-19)
(0.010980455 0.0015255271 -3.3695623e-19)
(0.011427641 0.0015958948 0)
(0.011896203 0.0016696262 1.6721563e-19)
(0.012387164 0.0017468822 0)
(0.012901594 0.0018278311 0)
(0.013440614 0.0019126495 0)
(0.014005401 0.0020015224 -1.1917949e-20)
(0.014597185 0.0020946436 0)
(0.015217258 0.0021922162 1.1918274e-20)
(0.015866972 0.002294453 0)
(0.016547743 0.0024015769 -2.5242956e-19)
(0.017261057 0.0025138215 -1.5814078e-19)
(0.018008468 0.0026314317 2.7859779e-19)
(0.018791607 0.0027546638 -1.3350455e-19)
(0.019612182 0.0028837867 0)
(0.020471982 0.0030190819 -1.0108e-19)
(0.021372882 0.0031608445 -1.9623271e-19)
(0.022316847 0.0033093837 0)
(0.023305935 0.0034650233 -1.651075e-19)
(0.024342304 0.0036281028 2.2139051e-19)
(0.025428214 0.0037989778 0)
(0.026566032 0.003978021 -2.4399533e-19)
(0.02775824 0.0041656229 0)
(0.029007438 0.0043621925 -5.0587235e-19)
(0.03031635 0.0045681585 2.7552895e-19)
(0.031687831 0.0047839701 -2.6409919e-19)
(0.033124871 0.005010098 0)
(0.034630605 0.0052470352 1.192027e-20)
(0.036208316 0.0054952985 1.3316812e-19)
(0.037861445 0.0057554293 0)
(0.039593596 0.0060279948 0)
(0.041408548 0.0063135896 0)
(0.043310259 0.0066128363 0)
(0.045302875 0.0069263877 0)
(0.047390742 0.0072549275 0)
(0.049578414 0.0075991721 1.3845523e-19)
(0.051870661 0.0079598724 -1.1529693e-19)
(0.054272482 0.0083378148 1.1697634e-19)
(0.056789114 0.0087338237 -1.0764309e-19)
(0.059426047 0.0091487626 0)
(0.062189031 0.0095835364 -2.5031839e-19)
(0.065084091 0.010039093 -7.2402662e-20)
(0.068117541 0.010516427 -1.4385376e-19)
(0.071295995 0.011016578 1.3212396e-19)
(0.074626387 0.011540637 -1.0951459e-19)
(0.078115978 0.012089747 -2.1147197e-19)
(0.081772378 0.012665106 2.8462517e-19)
(0.085603562 0.013267968 0)
(0.089617884 0.013899648 0)
(0.093824099 0.014561524 0)
(0.09823138 0.015255039 1.3716074e-19)
(0.10284934 0.015981706 -1.2601615e-19)
(0.10768804 0.016743108 -2.198035e-19)
(0.11275805 0.017540907 -2.9599176e-19)
(0.11807041 0.018376842 1.8444504e-19)
(0.12363672 0.019252737 -1.6908767e-19)
(0.1294691 0.020170502 0)
(0.13558028 0.021132137 2.8469924e-19)
(0.1419836 0.022139741 0)
(0.148693 0.02319551 1.0823617e-19)
(0.15572313 0.024301747 -9.8598145e-20)
(0.16308931 0.025460864 -3.8311418e-19)
(0.1708076 0.02667539 -9.3740409e-20)
(0.17889485 0.027947972 -4.7103539e-19)
(0.0060140269 0.0010486715 3.2912767e-19)
(0.0062259261 0.0010953443 0)
(0.0064479543 0.0011442482 0)
(0.0066805958 0.0011954897 -1.617603e-19)
(0.006924358 0.0012491806 1.478981e-19)
(0.0071797723 0.0013054381 1.4711063e-19)
(0.0074473959 0.0013643847 -1.2357724e-19)
(0.0077278122 0.0014261491 2.3777971e-19)
(0.008021633 0.0014908659 2.1829965e-19)
(0.0083294989 0.0015586763 2.9475577e-19)
(0.0086520813 0.0016297282 -2.8220376e-19)
(0.0089900837 0.0017041764 9.0579628e-20)
(0.0093442432 0.0017821835 8.3758324e-20)
(0.0097153322 0.0018639193 1.3121729e-19)
(0.01010416 0.0019495624 1.3172431e-19)
(0.010511574 0.0020392993 1.3321189e-19)
(0.010938464 0.0021333258 0)
(0.011385759 0.0022318469 -2.8536115e-19)
(0.011854437 0.0023350775 0)
(0.012345518 0.0024432428 2.3968782e-19)
(0.012860073 0.0025565785 0)
(0.013399225 0.002675332 0)
(0.01396415 0.002799762 -1.1536624e-19)
(0.014556079 0.0029301401 0)
(0.015176304 0.0030667505 9.6018928e-20)
(0.015826176 0.0032098911 1.8709442e-19)
(0.016507114 0.0033598741 0)
(0.017220602 0.0035170267 2.3052796e-19)
(0.017968196 0.0036816914 1.191692e-20)
(0.018751527 0.0038542274 0)
(0.019572302 0.004035011 -1.2246202e-19)
(0.020432312 0.0042244364 3.2624565e-19)
(0.021333432 0.0044229167 0)
(0.022277627 0.0046308847 0)
(0.023266957 0.0048487941 -1.6474169e-19)
(0.024303579 0.00507712 8.1583372e-20)
(0.025389754 0.0053163603 0)
(0.02652785 0.0055670367 0)
(0.027720349 0.005829696 -1.1918676e-20)
(0.028969852 0.006104911 0)
(0.030279083 0.0063932817 -8.7711993e-20)
(0.031650899 0.0066954372 0)
(0.03308829 0.0070120364 0)
(0.034594391 0.0073437696 1.4475473e-19)
(0.036172488 0.0076913603 1.210679e-19)
(0.03782602 0.0080555665 -2.3259889e-19)
(0.039558594 0.0084371826 0)
(0.041373989 0.0088370407 -3.9041408e-19)
(0.043276164 0.0092560128 0)
(0.045269266 0.0096950126 -3.1635178e-19)
(0.047357643 0.010154998 -1.5063038e-19)
(0.049545849 0.010636971 1.3832049e-19)
(0.051838655 0.011141983 2.4228124e-19)
(0.054241062 0.011671136 0)
(0.056758309 0.012225584 0)
(0.059395885 0.012806535 9.9061055e-20)
(0.062159543 0.013415257 -3.2951989e-19)
(0.065055309 0.014053077 2.408773e-19)
(0.068089499 0.014721387 2.7558767e-19)
(0.07126873 0.015421642 1.2011695e-19)
(0.074599934 0.016155372 1.2136067e-19)
(0.078090376 0.016924175 0)
(0.081747669 0.017729729 1.027661e-19)
(0.085579788 0.01857379 0)
(0.089595089 0.019458198 0)
(0.093802331 0.020384883 2.8671839e-19)
(0.098210687 0.021355866 0)
(0.10282977 0.022373263 0)
(0.10766966 0.023439294 0)
(0.1127409 0.024556284 -9.4649419e-20)
(0.11805456 0.025726668 3.6874862e-19)
(0.12362222 0.026952999 7.8552732e-20)
(0.12945603 0.02823795 1.4312238e-19)
(0.1355687 0.029584326 1.192111e-20)
(0.14197358 0.03099506 0)
(0.14868462 0.032473231 2.2832578e-19)
(0.15571646 0.034022061 0)
(0.16308444 0.035644928 1.0171387e-19)
(0.17080462 0.037345372 0)
(0.17889384 0.039127101 3.8448821e-19)
(0.0059565871 0.0013440424 0)
(0.006168556 0.0014040556 -2.2645979e-19)
(0.0063906572 0.0014669376 9.9186567e-20)
(0.0066233751 0.0015328254 0)
(0.0068672173 0.0016018627 1.5801803e-19)
(0.0071227153 0.0016742001 -1.4554427e-19)
(0.0073904265 0.0017499953 0)
(0.0076709347 0.0018294136 0)
(0.0079648516 0.0019126282 0)
(0.0082728181 0.0019998206 -1.9863795e-19)
(0.0085955058 0.0020911809 0)
(0.0089336186 0.0021869083 0)
(0.0092878936 0.0022872118 0)
(0.0096591036 0.0023923098 0)
(0.010048058 0.0025024318 1.3078668e-19)
(0.010455605 0.0026178177 0)
(0.010882634 0.0027387193 0)
(0.011330075 0.0028654002 0)
(0.011798905 0.0029981367 0)
(0.012290146 0.0031372182 0)
(0.012804868 0.003282948 0)
(0.013344196 0.0034356441 -1.3763393e-19)
(0.013909304 0.0035956392 -1.2665086e-19)
(0.014501426 0.0037632825 0)
(0.015121852 0.0039389394 0)
(0.015771936 0.004122993 2.7343256e-19)
(0.016453095 0.0043158447 -1.7097709e-19)
(0.017166815 0.0045179151 0)
(0.017914651 0.0047296449 0)
(0.018698236 0.0049514958 0)
(0.019519278 0.0051839516 1.1915728e-20)
(0.020379567 0.0054275192 1.0043986e-19)
(0.02128098 0.0056827298 9.1599482e-20)
(0.022225482 0.00595014 2.6251411e-19)
(0.023215133 0.006230333 -7.6171966e-20)
(0.024252091 0.0065239197 -8.1373376e-20)
(0.025338618 0.0068315404 1.3857688e-19)
(0.026477084 0.007153866 0)
(0.02766997 0.0074915995 1.1720357e-19)
(0.028919878 0.0078454772 0)
(0.030229535 0.0082162711 1.8692619e-19)
(0.031601795 0.0086047896 9.1686639e-20)
(0.033039653 0.0090118801 0)
(0.034546243 0.0094384303 2.7704298e-19)
(0.036124851 0.0098853705 -1.3274906e-19)
(0.03777892 0.010353675 1.2205208e-19)
(0.039512056 0.010844366 1.1229899e-19)
(0.04132804 0.011358513 9.1487938e-20)
(0.043230832 0.011897237 -4.407435e-19)
(0.045224581 0.012461713 8.7909692e-20)
(0.047313635 0.013053172 0)
(0.049502551 0.013672904 -2.6436598e-19)
(0.0517961 0.014322261 1.2694629e-19)
(0.054199287 0.015002658 1.1919627e-20)
(0.05671735 0.01571558 0)
(0.059355782 0.01646258 -1.740804e-19)
(0.062120336 0.017245289 0)
(0.065017042 0.018065413 0)
(0.068052216 0.018924741 0)
(0.071232478 0.019825146 0)
(0.074564762 0.020768592 0)
(0.078056337 0.021757137 3.1079635e-19)
(0.081714816 0.022792936 0)
(0.085548177 0.023878249 1.6540591e-19)
(0.089564782 0.025015442 1.1920459e-20)
(0.093773388 0.026206995 0)
(0.098183174 0.027455506 0)
(0.10280376 0.028763699 0)
(0.10764521 0.030134427 0)
(0.1127181 0.031570678 0)
(0.11803348 0.033075584 -1.8428065e-19)
(0.12360295 0.034652429 0)
(0.12943865 0.036304649 -5.3644664e-19)
(0.13555331 0.038035849 -1.4224343e-19)
(0.14196026 0.039849804 0)
(0.14867348 0.04175047 0)
(0.1557076 0.043741992 0)
(0.16307797 0.045828712 -3.7095789e-19)
(0.17080065 0.048015182 9.3689509e-20)
(0.1788925 0.050306169 0)
(0.005885049 0.0016362408 0)
(0.0060971047 0.0017095985 -1.1895436e-20)
(0.0063192968 0.0017864627 0)
(0.0065521098 0.0018670011 0)
(0.0067960514 0.0019513893 1.5586515e-19)
(0.0070516537 0.0020398113 1.4365613e-19)
(0.007319474 0.00213246 0)
(0.0076000964 0.0022295374 0)
(0.0078941329 0.0023312552 0)
(0.0082022246 0.0024378352 1.1902936e-20)
(0.0085250436 0.0025495098 2.6496837e-19)
(0.0088632937 0.0026665227 -1.5423585e-19)
(0.0092177126 0.002789129 5.8585655e-20)
(0.0095890732 0.002917596 0)
(0.0099781855 0.0030522039 1.1774037e-19)
(0.010385898 0.0031932463 0)
(0.0108131 0.0033410307 1.1907844e-20)
(0.011260722 0.0034958795 3.828918e-19)
(0.011729742 0.0036581303 1.190901e-20)
(0.012221182 0.0038281369 0)
(0.012736113 0.0040062702 1.486441e-19)
(0.013275659 0.0041929185 1.1910587e-20)
(0.013840996 0.004388489 0)
(0.014433357 0.004593408 0)
(0.015054034 0.0048081226 0)
(0.015704381 0.0050331009 0)
(0.016385816 0.0052688336 -2.4917254e-19)
(0.017099824 0.0055158348 0)
(0.017847963 0.0057746431 0)
(0.018631865 0.0060458229 0)
(0.019453239 0.0063299656 -1.0961411e-19)
(0.020313876 0.0066276909 -2.119008e-19)
(0.021215653 0.006939648 0)
(0.022160536 0.0072665172 0)
(0.023150587 0.0076090115 -1.6366947e-19)
(0.024187965 0.0079678776 -1.5031508e-19)
(0.025274931 0.0083438983 0)
(0.026413856 0.0087378935 1.1916298e-20)
(0.027607224 0.0091507224 1.1686409e-19)
(0.028857638 0.0095832854 2.0330013e-19)
(0.030167823 0.010036526 0)
(0.031540638 0.010511432 1.7100877e-19)
(0.032979077 0.011009039 2.2947853e-19)
(0.034486275 0.011530434 0)
(0.036065521 0.012076752 0)
(0.037720258 0.012649185 2.3167561e-19)
(0.039454095 0.013248981 0)
(0.041270812 0.013877449 0)
(0.043174372 0.014535959 9.5132469e-20)
(0.045168927 0.015225947 1.6360935e-19)
(0.047258825 0.015948918 0)
(0.049448624 0.016706448 0)
(0.0517431 0.01750019 -2.4159233e-19)
(0.054147257 0.018331874 3.3780625e-19)
(0.056666337 0.019203315 2.9804574e-19)
(0.059305835 0.020116412 0)
(0.062071506 0.021073157 -1.7032899e-19)
(0.064969381 0.022075636 2.2844819e-19)
(0.068005781 0.023126036 0)
(0.071187327 0.024226647 0)
(0.074520957 0.02537987 2.4227827e-19)
(0.078013942 0.026588219 -3.1047839e-19)
(0.081673898 0.02785433 1.9327909e-19)
(0.085508808 0.029180963 2.7171047e-19)
(0.089527034 0.030571012 -7.5281858e-20)
(0.09373734 0.032027508 2.8628652e-19)
(0.098148907 0.033553628 1.3691019e-19)
(0.10277136 0.035152699 2.3967805e-19)
(0.10761477 0.036828209 0)
(0.1126897 0.038583812 1.0644889e-19)
(0.11800723 0.040423336 -4.6637156e-19)
(0.12357895 0.042350793 -9.0382833e-20)
(0.129417 0.044370387 0)
(0.13553413 0.046486522 0)
(0.14194367 0.048703811 -2.6116073e-19)
(0.1486596 0.051027092 1.2002231e-19)
(0.15569656 0.053461431 0)
(0.1630699 0.056012136 -2.9299462e-19)
(0.17079571 0.058684769 0)
(0.17889082 0.061485161 -1.6083623e-19)
(0.0057995863 0.0019245781 0)
(0.0060117455 0.002011285 0)
(0.0062340459 0.0021021365 2.7666059e-19)
(0.0064669724 0.0021973307 -8.9127354e-20)
(0.0067110328 0.0022970753 -2.2414387e-19)
(0.0069667594 0.0024015877 0)
(0.00723471 0.0025110958 -2.4921153e-19)
(0.0075154687 0.0026258385 1.0862342e-19)
(0.007809648 0.002746066 0)
(0.0081178893 0.0028720405 -1.0287366e-19)
(0.0084408648 0.0030040367 1.7836335e-19)
(0.008779279 0.0031423425 0)
(0.0091338697 0.0032872595 1.3925806e-19)
(0.0095054103 0.0034391036 0)
(0.009894711 0.0035982061 0)
(0.010302621 0.0037649139 -1.1832576e-19)
(0.010730029 0.0039395906 0)
(0.011177868 0.0041226171 0)
(0.011647115 0.0043143925 0)
(0.012138792 0.0045153351 -3.2060695e-19)
(0.012653973 0.004725883 1.3555556e-19)
(0.013193779 0.0049464955 -3.9524992e-19)
(0.01375939 0.0051776536 -2.3804979e-19)
(0.014352037 0.0054198615 -4.3681821e-19)
(0.014973014 0.0056736473 0)
(0.015623675 0.0059395646 -9.7976157e-20)
(0.016305439 0.0062181931 1.6904223e-19)
(0.017019792 0.0065101406 0)
(0.017768292 0.0068160437 0)
(0.018552573 0.0071365696 -2.5083532e-19)
(0.019374343 0.0074724172 0)
(0.020235395 0.0078243189 1.1138156e-19)
(0.021137608 0.0081930422 0)
(0.022082947 0.0085793911 -3.5500931e-19)
(0.023073476 0.0089842083 0)
(0.024111354 0.0094083765 0)
(0.025198845 0.0098528207 0)
(0.02633832 0.01031851 0)
(0.027532263 0.010806461 -3.2556176e-19)
(0.02878328 0.011317736 0)
(0.030094098 0.011853452 -9.8862116e-20)
(0.031467575 0.012414775 0)
(0.032906708 0.013002931 8.420842e-20)
(0.034414633 0.013619202 0)
(0.035994641 0.014264932 0)
(0.037650176 0.014941529 0)
(0.039384849 0.015650469 2.3834978e-20)
(0.041202443 0.016393298 -1.9405463e-19)
(0.043106921 0.017171635 0)
(0.045102438 0.017987179 0)
(0.047193344 0.018841707 -1.1918197e-20)
(0.049384199 0.019737083 0)
(0.051679782 0.02067526 -1.265302e-19)
(0.054085098 0.021658284 0)
(0.056605394 0.022688298 0)
(0.059246164 0.023767549 3.828312e-19)
(0.062013169 0.02489839 1.7007296e-19)
(0.064912442 0.026083288 2.2811504e-19)
(0.067950306 0.027324826 -2.7461426e-19)
(0.071133386 0.028625713 -2.513101e-19)
(0.074468624 0.029988784 0)
(0.077963294 0.031417014 0)
(0.081625015 0.032913515 0)
(0.085461774 0.034481552 -9.4448848e-20)
(0.089481938 0.036124544 -1.1919869e-20)
(0.093694274 0.037846075 0)
(0.098107969 0.039649899 3.9844152e-19)
(0.10273265 0.041539949 0)
(0.10757839 0.043520347 0)
(0.11265578 0.045595412 0)
(0.11797587 0.04776967 0)
(0.12355027 0.050047862 -2.4712829e-19)
(0.12939115 0.052434955 8.3351874e-20)
(0.13551122 0.054936157 1.1920497e-20)
(0.14192385 0.057556921 0)
(0.14864302 0.060302963 0)
(0.15568338 0.063180272 0)
(0.16306027 0.066195122 -1.0158876e-19)
(0.17078981 0.069354088 9.3610573e-20)
(0.17888882 0.072664058 1.6076232e-19)
(0.0057004059 0.0022083753 1.0998819e-19)
(0.005912685 0.002308437 -8.9967144e-20)
(0.006135111 0.0024132816 0)
(0.006368169 0.0025231378 0)
(0.0066123671 0.0026382451 -1.5065571e-19)
(0.0068682379 0.0027588545 -1.1892881e-20)
(0.0071363395 0.0028852292 -2.4498036e-19)
(0.0074172564 0.0030176445 -1.0676611e-19)
(0.0077116012 0.0031563894 2.0746939e-19)
(0.008020016 0.0033017664 -3.8196347e-19)
(0.0083431732 0.0034540925 0)
(0.0086817775 0.0036137 0)
(0.0090365675 0.0037809368 1.4922676e-19)
(0.0094083168 0.0039561677 0)
(0.0097978362 0.0041397749 -2.5367827e-19)
(0.010205975 0.0043321586 -1.1902706e-20)
(0.010633623 0.0045337386 -1.1903501e-20)
(0.011081714 0.0047449544 -2.7557666e-19)
(0.011551224 0.0049662665 -8.0345588e-20)
(0.012043177 0.0051981577 -2.3221627e-19)
(0.012558646 0.0054411336 0)
(0.013098755 0.0056957242 0)
(0.013664683 0.0059624845 1.1907666e-20)
(0.014257662 0.0062419965 -1.1908267e-20)
(0.014878987 0.0065348695 -1.9890096e-19)
(0.015530013 0.0068417424 -1.8268562e-19)
(0.016212158 0.0071632843 1.5594856e-19)
(0.016926912 0.0075001965 8.3106715e-20)
(0.017675831 0.0078532137 -1.1910929e-20)
(0.018460551 0.0082231057 3.7985054e-19)
(0.019282781 0.0086106792 2.2856537e-19)
(0.020144316 0.0090167794 0)
(0.021047033 0.009442292 -1.0214495e-19)
(0.021992902 0.0098881449 0)
(0.022983985 0.01035531 8.7047835e-20)
(0.024022444 0.010844807 0)
(0.025110544 0.011357703 -1.370001e-19)
(0.026250656 0.011895116 -1.1411181e-19)
(0.027445268 0.012458219 1.1600809e-19)
(0.028696985 0.013048238 1.0686316e-19)
(0.030008536 0.013666462 0)
(0.031382782 0.014314239 9.0898243e-20)
(0.03282272 0.01499298 -8.3946282e-20)
(0.03433149 0.015704166 1.43289e-19)
(0.035912381 0.016449349 0)
(0.037568843 0.017230153 1.1916701e-20)
(0.039304486 0.01804828 1.1151503e-19)
(0.041123097 0.018905516 0)
(0.043028641 0.01980373 9.4707555e-20)
(0.045025274 0.020744879 -8.7394572e-20)
(0.04711735 0.021731018 1.4953185e-19)
(0.049309431 0.022764296 1.1917903e-20)
(0.051606298 0.023846967 -1.2627157e-19)
(0.05401296 0.024981392 -2.3230918e-19)
(0.056534665 0.026170044 0)
(0.059176913 0.027415517 0)
(0.061945466 0.028720525 -2.4870893e-19)
(0.064846361 0.030087916 2.277322e-19)
(0.067885925 0.03152067 -2.8609025e-19)
(0.071070786 0.033021913 0)
(0.07440789 0.034594919 2.2973491e-19)
(0.077904514 0.036243118 2.2233737e-19)
(0.081568284 0.037970103 0)
(0.085407189 0.039779642 2.5918068e-19)
(0.089429602 0.041675681 7.510586e-20)
(0.093644295 0.043662354 -1.4879785e-19)
(0.098060458 0.045743995 -1.3664546e-19)
(0.10268772 0.047925142 0)
(0.10753618 0.050210552 -2.1903191e-19)
(0.1126164 0.052605209 1.0627691e-19)
(0.11793947 0.055114336 0)
(0.123517 0.057743405 -6.6413597e-20)
(0.12936114 0.060498148 1.4274377e-19)
(0.13548464 0.063384574 4.259277e-19)
(0.14190085 0.066408976 -3.7932154e-19)
(0.14862378 0.069577951 3.477151e-19)
(0.15566807 0.07289841 1.1027857e-19)
(0.1630491 0.076377593 0)
(0.17078295 0.080023088 0)
(0.1788865 0.083842846 0)
(0.0055877479 0.0024869645 1.0157665e-19)
(0.005800163 0.0026003874 0)
(0.0060227315 0.0027192318 -3.462807e-19)
(0.0062559387 0.0028437569 -8.5892585e-20)
(0.006500293 0.0029742342 0)
(0.0067563275 0.0031109484 0)
(0.0070246004 0.0032541974 -1.1891674e-20)
(0.0073056967 0.0034042938 0)
(0.0076002296 0.0035615649 0)
(0.0079088412 0.0037263535 4.6371889e-19)
(0.0082322046 0.0038990192 -9.2503908e-20)
(0.008571025 0.0040799383 -3.0722195e-19)
(0.0089260412 0.0042695056 -2.8233459e-19)
(0.0092980275 0.0044681343 1.35695e-19)
(0.0096877951 0.0046762576 0)
(0.010096194 0.0048943294 -1.1560085e-19)
(0.010524115 0.0051228253 1.0678431e-19)
(0.010972491 0.0053622436 0)
(0.011442299 0.0056131064 1.7068153e-19)
(0.011934566 0.0058759607 0)
(0.012450363 0.0061513798 0)
(0.012990816 0.0064399643 0)
(0.013557103 0.0067423436 0)
(0.01415046 0.007059177 1.132879e-19)
(0.014772181 0.0073911556 0)
(0.01542362 0.0077390033 -8.4639073e-20)
(0.016106199 0.0081034787 2.4386853e-19)
(0.016821407 0.0084853766 0)
(0.017570803 0.0088855298 0)
(0.018356021 0.0093048111 1.2971506e-19)
(0.019178774 0.0097441347 -1.0756641e-19)
(0.020040856 0.010204459 0)
(0.020944148 0.010686787 0)
(0.021890618 0.011192172 0)
(0.022882331 0.011721715 0)
(0.02392145 0.012276571 -1.482512e-19)
(0.025010241 0.01285795 -1.3633051e-19)
(0.026151077 0.01346712 0)
(0.027346449 0.01410541 -1.1549959e-19)
(0.028598961 0.014774211 0)
(0.029911345 0.015474982 0)
(0.031286464 0.016209251 -4.1706556e-19)
(0.032727317 0.01697862 0)
(0.034237045 0.017784766 -2.7364429e-19)
(0.035818941 0.018629447 0)
(0.037476454 0.019514506 0)
(0.0392132 0.020441873 1.1117953e-19)
(0.041032966 0.021413569 1.0243337e-19)
(0.042939721 0.022431715 4.3651758e-19)
(0.044937622 0.023498529 -8.7173744e-20)
(0.047031026 0.02461634 0)
(0.0492245 0.025787584 1.3703253e-19)
(0.051522826 0.027014816 1.2598165e-19)
(0.053931017 0.028300712 1.1590262e-19)
(0.056454324 0.029648077 -1.067105e-19)
(0.05909825 0.031059848 1.1918212e-20)
(0.061868561 0.032539105 -6.6846773e-20)
(0.064771298 0.034089074 0)
(0.067812793 0.035713133 0)
(0.070999676 0.037414827 0)
(0.0743389 0.039197864 2.2935989e-19)
(0.077837745 0.041066135 -4.2018525e-19)
(0.081503841 0.043023712 0)
(0.085345185 0.045074866 -1.6459607e-19)
(0.089370153 0.047224069 -1.6191892e-19)
(0.093587522 0.049476008 0)
(0.09800649 0.051835595 1.1919603e-20)
(0.10263669 0.054307975 0)
(0.10748823 0.056898539 -2.1879225e-19)
(0.11257168 0.059612938 1.0617302e-19)
(0.11789813 0.06245709 0)
(0.12347919 0.065437199 -9.0176086e-20)
(0.12932705 0.068559763 8.3224709e-20)
(0.13545444 0.071831591 0)
(0.14187473 0.07525982 -1.1839288e-19)
(0.14860192 0.078851925 -1.1979131e-19)
(0.15565069 0.082615741 4.0505158e-19)
(0.1630364 0.086559474 0)
(0.17077517 0.090691726 0)
(0.17888386 0.095021507 0)
(0.0054618847 0.0027596907 9.9017865e-20)
(0.0056744517 0.0028864819 0)
(0.0058971791 0.0030193335 7.8629753e-20)
(0.0061305527 0.0031585353 3.0084724e-19)
(0.0063750814 0.0033043909 0)
(0.0066312985 0.0034572183 -2.6745021e-19)
(0.0068997627 0.0036173508 0)
(0.0071810594 0.0037851376 4.2235576e-19)
(0.0074758021 0.0039609446 0)
(0.0077846335 0.0041451552 0)
(0.0081082272 0.0043381712 9.1044534e-20)
(0.0084472888 0.0045404133 2.2954313e-19)
(0.0088025576 0.0047523228 1.1896634e-20)
(0.0091748086 0.0049743617 0)
(0.0095648534 0.0052070141 -2.3504967e-19)
(0.0099735427 0.0054507876 1.1899544e-20)
(0.010401768 0.0057062136 1.9898631e-19)
(0.010850462 0.0059738493 0)
(0.011320605 0.0062542783 -9.0261098e-20)
(0.011813221 0.006548112 0)
(0.012329385 0.0068559914 1.4308075e-19)
(0.012870222 0.0071785878 1.1997981e-19)
(0.013436911 0.0075166048 3.5296841e-19)
(0.01403069 0.0078707794 -1.1222543e-19)
(0.014652851 0.0082418841 1.0361685e-19)
(0.015304753 0.0086307282 -2.6338794e-19)
(0.015987817 0.0090381596 0)
(0.016703533 0.0094650669 -8.1912476e-20)
(0.017453461 0.009912381 0)
(0.018239236 0.010381078 3.743901e-19)
(0.019062573 0.010872178 0)
(0.019925267 0.011386755 -1.093953e-19)
(0.020829199 0.011925929 0)
(0.021776341 0.012490877 9.319759e-20)
(0.022768758 0.01308283 -2.3455366e-19)
(0.023808614 0.013703079 0)
(0.024898177 0.014352978 -2.7119802e-19)
(0.026039823 0.015033942 0)
(0.027236042 0.015747459 0)
(0.028489443 0.016495082 0)
(0.029802759 0.017278444 1.8350145e-19)
(0.031178853 0.018099252 0)
(0.032620728 0.018959296 0)
(0.034131526 0.019860451 1.3030665e-19)
(0.035714544 0.020804684 2.4965132e-19)
(0.037373234 0.021794053 0)
(0.039111211 0.022830715 0)
(0.040932268 0.023916932 -1.9230928e-19)
(0.042840375 0.025055072 -1.1916502e-20)
(0.044839693 0.026247618 0)
(0.046934582 0.02749717 -1.4872622e-19)
(0.049129611 0.028806453 0)
(0.051429567 0.030178322 1.2566252e-19)
(0.053839466 0.031615769 0)
(0.056364562 0.033121929 0)
(0.059010363 0.034700086 0)
(0.061782639 0.036353683 2.4766784e-19)
(0.064687435 0.038086325 2.2682791e-19)
(0.067731086 0.03990179 0)
(0.070920229 0.041804039 -1.1918561e-20)
(0.074261821 0.043797219 0)
(0.077763147 0.045885677 0)
(0.081431843 0.048073967 0)
(0.085275911 0.050366862 -1.6432546e-19)
(0.089303733 0.052769362 0)
(0.093524092 0.055286706 0)
(0.097946194 0.057924385 1.2438959e-19)
(0.10257968 0.06068815 1.252782e-19)
(0.10743466 0.063584029 0)
(0.11252171 0.066618336 2.0019601e-19)
(0.11785194 0.06979769 0)
(0.12343696 0.073129023 -7.8169751e-20)
(0.12928896 0.0766196 0)
(0.13542069 0.080277034 0)
(0.14184554 0.084109302 -1.3020105e-19)
(0.1485775 0.088124759 1.1969433e-19)
(0.15563127 0.092332163 0)
(0.16302222 0.09674069 1.9086675e-19)
(0.17076647 0.10135995 9.3441923e-20)
(0.17888092 0.10620003 1.6047137e-19)
(0.0053231207 0.0030259134 5.9536875e-21)
(0.0055358548 0.0031660807 -9.5108942e-20)
(0.0057587572 0.0033129477 0)
(0.0059923142 0.0034668349 3.6395776e-19)
(0.0062370349 0.0036280777 -5.4164127e-19)
(0.0064934531 0.0037970278 0)
(0.006762128 0.0039740536 1.1888485e-20)
(0.0070436454 0.0041595412 1.1227916e-19)
(0.0073386193 0.004353895 -1.1890952e-20)
(0.007647693 0.004557539 -9.6488726e-20)
(0.0079715403 0.0047709171 0)
(0.0083108677 0.0049944948 -8.3098747e-20)
(0.008666415 0.0052287596 0)
(0.0090389576 0.0054742223 0)
(0.009429308 0.0057314182 2.5517926e-19)
(0.0098383173 0.0060009083 0)
(0.010266878 0.0062832803 0)
(0.010715924 0.0065791499 9.6281366e-20)