/*--------------------------------*- C++ -*----------------------------------*\
| =========                 |                                                 |
| \\      /  F ield         | OpenFOAM: The Open Source CFD Toolbox           |
|  \\    /   O peration     | Version:  2512                                  |
|   \\  /    A nd           | Website:  www.openfoam.com                      |
|    \\/     M anipulation  |                                                 |
\*---------------------------------------------------------------------------*/
FoamFile
{
    version     2.0;
    format      ascii;
    arch        "LSB;label=32;scalar=64";
    class       volScalarField;
    location    "0";
    object      Cx;
}
// * * * * * * * * * * * * * * * * * * * * * * * * * * * * * * * * * * * * * //

dimensions      [0 1 0 0 0 0 0];

internalField   nonuniform List<scalar> 
10240
(
0.0061005368
0.0063123308
0.0065342489
0.0067667752
0.0070104167
0.0072657048
0.0075331962
0.0078134743
0.0081071502
0.0084148645
0.0087372881
0.0090751243
0.0094291097
0.0098000163
0.010188653
0.010595868
0.011022548
0.011469624
0.011938071
0.012428911
0.012943215
0.013482103
0.014046751
0.01463839
0.015258311
0.015907866
0.01658847
0.017301609
0.018048838
0.018831785
0.019652159
0.020511748
0.021412428
0.022356161
0.023345008
0.024381123
0.025466766
0.026604306
0.027796222
0.029045114
0.030353706
0.031724852
0.03316154
0.034666906
0.036244231
0.037896955
0.039628683
0.041443191
0.043344436
0.045336565
0.047423922
0.049611058
0.051902744
0.054303977
0.056819994
0.059456282
0.06221859
0.065112942
0.06814565
0.071323327
0.074652904
0.078141641
0.081797147
0.085627394
0.089640734
0.093845921
0.098252123
0.10286895
0.10770647
0.11277524
0.1180863
0.12365124
0.1294822
0.13559189
0.14199364
0.1487014
0.15572981
0.16309419
0.1708106
0.17889587
0.0060860893
0.0062979008
0.0065198373
0.0067523829
0.0069960446
0.0072513538
0.0075188673
0.0077991684
0.0080928686
0.0084006081
0.0087230583
0.0090609222
0.0094149367
0.0097858738
0.010174542
0.01058179
0.011008505
0.011455618
0.011924104
0.012414984
0.01292933
0.013468262
0.014032956
0.014624644
0.015244616
0.015894224
0.016574884
0.017288081
0.01803537
0.018818382
0.019638822
0.020498482
0.021399235
0.022343046
0.023331973
0.024368173
0.025453905
0.026591538
0.027783551
0.029032545
0.030341244
0.031712501
0.033149307
0.034654796
0.036232249
0.037885109
0.039616978
0.041431634
0.043333035
0.045325326
0.047412853
0.049600168
0.051892041
0.05429347
0.056809693
0.059446196
0.062208729
0.065103317
0.068136272
0.071314209
0.074644058
0.07813308
0.081788884
0.085619444
0.089633112
0.093838641
0.098245203
0.10286241
0.10770033
0.1127695
0.118081
0.1236464
0.12947783
0.13558802
0.14199029
0.1486986
0.15572758
0.16309256
0.1708096
0.17889553
0.0060572293
0.0062690759
0.0064910492
0.0067236332
0.0069673351
0.0072226864
0.007490244
0.0077705913
0.0080643398
0.00837213
0.0086946331
0.0090325525
0.0093866251
0.009757623
0.010146355
0.01055367
0.010980455
0.011427641
0.011896203
0.012387164
0.012901594
0.013440614
0.014005401
0.014597185
0.015217258
0.015866972
0.016547743
0.017261057
0.018008468
0.018791607
0.019612182
0.020471982
0.021372882
0.022316847
0.023305935
0.024342304
0.025428214
0.026566032
0.02775824
0.029007438
0.03031635
0.031687831
0.033124871
0.034630605
0.036208316
0.037861445
0.039593596
0.041408548
0.043310259
0.045302875
0.047390742
0.049578414
0.051870661
0.054272482
0.056789114
0.059426047
0.062189031
0.065084091
0.068117541
0.071295995
0.074626387
0.078115978
0.081772378
0.085603562
0.089617884
0.093824099
0.09823138
0.10284934
0.10768804
0.11275805
0.11807041
0.12363672
0.1294691
0.13558028
0.1419836
0.148693
0.15572313
0.16308931
0.1708076
0.17889485
0.0060140269
0.0062259261
0.0064479543
0.0066805958
0.006924358
0.0071797723
0.0074473959
0.0077278122
0.008021633
0.0083294989
0.0086520813
0.0089900837
0.0093442432
0.0097153322
0.01010416
0.010511574
0.010938464
0.011385759
0.011854437
0.012345518
0.012860073
0.013399225
0.01396415
0.014556079
0.015176304
0.015826176
0.016507114
0.017220602
0.017968196
0.018751527
0.019572302
0.020432312
0.021333432
0.022277627
0.023266957
0.024303579
0.025389754
0.02652785
0.027720349
0.028969852
0.030279083
0.031650899
0.03308829
0.034594391
0.036172488
0.03782602
0.039558594
0.041373989
0.043276164
0.045269266
0.047357643
0.049545849
0.051838655
0.054241062
0.056758309
0.059395885
0.062159543
0.065055309
0.068089499
0.07126873
0.074599934
0.078090376
0.081747669
0.085579788
0.089595089
0.093802331
0.098210687
0.10282977
0.10766966
0.1127409
0.11805456
0.12362222
0.12945603
0.1355687
0.14197358
0.14868462
0.15571646
0.16308444
0.17080462
0.17889384
0.0059565871
0.006168556
0.0063906572
0.0066233751
0.0068672173
0.0071227153
0.0073904265
0.0076709347
0.0079648516
0.0082728181
0.0085955058
0.0089336186
0.0092878936
0.0096591036
0.010048058
0.010455605
0.010882634
0.011330075
0.011798905
0.012290146
0.012804868
0.013344196
0.013909304
0.014501426
0.015121852
0.015771936
0.016453095
0.017166815
0.017914651
0.018698236
0.019519278
0.020379567
0.02128098
0.022225482
0.023215133
0.024252091
0.025338618
0.026477084
0.02766997
0.028919878
0.030229535
0.031601795
0.033039653
0.034546243
0.036124851
0.03777892
0.039512056
0.04132804
0.043230832
0.045224581
0.047313635
0.049502551
0.0517961
0.054199287
0.05671735
0.059355782
0.062120336
0.065017042
0.068052216
0.071232478
0.074564762
0.078056337
0.081714816
0.085548177
0.089564782
0.093773388
0.098183174
0.10280376
0.10764521
0.1127181
0.11803348
0.12360295
0.12943865
0.13555331
0.14196026
0.14867348
0.1557076
0.16307797
0.17080065
0.1788925
0.005885049
0.0060971047
0.0063192968
0.0065521098
0.0067960514
0.0070516537
0.007319474
0.0076000964
0.0078941329
0.0082022246
0.0085250436
0.0088632937
0.0092177126
0.0095890732
0.0099781855
0.010385898
0.0108131
0.011260722
0.011729742
0.012221182
0.012736113
0.013275659
0.013840996
0.014433357
0.015054034
0.015704381
0.016385816
0.017099824
0.017847963
0.018631865
0.019453239
0.020313876
0.021215653
0.022160536
0.023150587
0.024187965
0.025274931
0.026413856
0.027607224
0.028857638
0.030167823
0.031540638
0.032979077
0.034486275
0.036065521
0.037720258
0.039454095
0.041270812
0.043174372
0.045168927
0.047258825
0.049448624
0.0517431
0.054147257
0.056666337
0.059305835
0.062071506
0.064969381
0.068005781
0.071187327
0.074520957
0.078013942
0.081673898
0.085508808
0.089527034
0.09373734
0.098148907
0.10277136
0.10761477
0.1126897
0.11800723
0.12357895
0.129417
0.13553413
0.14194367
0.1486596
0.15569656
0.1630699
0.17079571
0.17889082
0.0057995863
0.0060117455
0.0062340459
0.0064669724
0.0067110328
0.0069667594
0.00723471
0.0075154687
0.007809648
0.0081178893
0.0084408648
0.008779279
0.0091338697
0.0095054103
0.009894711
0.010302621
0.010730029
0.011177868
0.011647115
0.012138792
0.012653973
0.013193779
0.01375939
0.014352037
0.014973014
0.015623675
0.016305439
0.017019792
0.017768292
0.018552573
0.019374343
0.020235395
0.021137608
0.022082947
0.023073476
0.024111354
0.025198845
0.02633832
0.027532263
0.02878328
0.030094098
0.031467575
0.032906708
0.034414633
0.035994641
0.037650176
0.039384849
0.041202443
0.043106921
0.045102438
0.047193344
0.049384199
0.051679782
0.054085098
0.056605394
0.059246164
0.062013169
0.064912442
0.067950306
0.071133386
0.074468624
0.077963294
0.081625015
0.085461774
0.089481938
0.093694274
0.098107969
0.10273265
0.10757839
0.11265578
0.11797587
0.12355027
0.12939115
0.13551122
0.14192385
0.14864302
0.15568338
0.16306027
0.17078981
0.17888882
0.0057004059
0.005912685
0.006135111
0.006368169
0.0066123671
0.0068682379
0.0071363395
0.0074172564
0.0077116012
0.008020016
0.0083431732
0.0086817775
0.0090365675
0.0094083168
0.0097978362
0.010205975
0.010633623
0.011081714
0.011551224
0.012043177
0.012558646
0.013098755
0.013664683
0.014257662
0.014878987
0.015530013
0.016212158
0.016926912
0.017675831
0.018460551
0.019282781
0.020144316
0.021047033
0.021992902
0.022983985
0.024022444
0.025110544
0.026250656
0.027445268
0.028696985
0.030008536
0.031382782
0.03282272
0.03433149
0.035912381
0.037568843
0.039304486
0.041123097
0.043028641
0.045025274
0.04711735
0.049309431
0.051606298
0.05401296
0.056534665
0.059176913
0.061945466
0.064846361
0.067885925
0.071070786
0.07440789
0.077904514
0.081568284
0.085407189
0.089429602
0.093644295
0.098060458
0.10268772
0.10753618
0.1126164
0.11793947
0.123517
0.12936114
0.13548464
0.14190085
0.14862378
0.15566807
0.1630491
0.17078295
0.1788865
0.0055877479
0.005800163
0.0060227315
0.0062559387
0.006500293
0.0067563275
0.0070246004
0.0073056967
0.0076002296
0.0079088412
0.0082322046
0.008571025
0.0089260412
0.0092980275
0.0096877951
0.010096194
0.010524115
0.010972491
0.011442299
0.011934566
0.012450363
0.012990816
0.013557103
0.01415046
0.014772181
0.01542362
0.016106199
0.016821407
0.017570803
0.018356021
0.019178774
0.020040856
0.020944148
0.021890618
0.022882331
0.02392145
0.025010241
0.026151077
0.027346449
0.028598961
0.029911345
0.031286464
0.032727317
0.034237045
0.035818941
0.037476454
0.0392132
0.041032966
0.042939721
0.044937622
0.047031026
0.0492245
0.051522826
0.053931017
0.056454324
0.05909825
0.061868561
0.064771298
0.067812793
0.070999676
0.0743389
0.077837745
0.081503841
0.085345185
0.089370153
0.093587522
0.09800649
0.10263669
0.10748823
0.11257168
0.11789813
0.12347919
0.12932705
0.13545444
0.14187473
0.14860192
0.15565069
0.1630364
0.17077517
0.17888386
0.0054618847
0.0056744517
0.0058971791
0.0061305527
0.0063750814
0.0066312985
0.0068997627
0.0071810594
0.0074758021
0.0077846335
0.0081082272
0.0084472888
0.0088025576
0.0091748086
0.0095648534
0.0099735427
0.010401768
0.010850462
0.011320605
0.011813221
0.012329385
0.012870222
0.013436911
0.01403069
0.014652851
0.015304753
0.015987817
0.016703533
0.017453461
0.018239236
0.019062573
0.019925267
0.020829199
0.021776341
0.022768758
0.023808614
0.024898177
0.026039823
0.027236042
0.028489443
0.029802759
0.031178853
0.032620728
0.034131526
0.035714544
0.037373234
0.039111211
0.040932268
0.042840375
0.044839693
0.046934582
0.049129611
0.051429567
0.053839466
0.056364562
0.059010363
0.061782639
0.064687435
0.067731086
0.070920229
0.074261821
0.077763147
0.081431843
0.085275911
0.089303733
0.093524092
0.097946194
0.10257968
0.10743466
0.11252171
0.11785194
0.12343696
0.12928896
0.13542069
0.14184554
0.1485775
0.15563127
0.16302222
0.17076647
0.17888092
0.0053231207
0.0055358548
0.0057587572
0.0059923142
0.0062370349
0.0064934531
0.006762128
0.0070436454
0.0073386193
0.007647693
0.0079715403
0.0083108677
0.008666415
0.0090389576
0.009429308
0.0098383173
0.010266878
0.010715924
0.011186434
0.011679436
0.012196004
0.012737264
0.013304397
0.01389864
0.014521288
0.0151737
0.015857298
0.016573573
0.017324088
0.018110478
0.018934458
0.019797827
0.020702465
0.021650348
0.02264354
0.023684209
0.024774624
0.025917162
0.027114316
0.028368697
0.029683038
0.031060208
0.03250321
0.034015189
0.035599444
0.037259429
0.038998765
0.040821245
0.042730842
0.044731723
0.046828249
0.049024993
0.051326746
0.053738527
0.056265597
0.058913465
0.061687906
0.064594972
0.067641001
0.070832636
0.074176838
0.0776809
0.081352463
0.085199534
0.089230502
0.093454159
0.097879716
0.10251682
0.10737559
0.11246662
0.11780101
0.1233904
0.12924697
0.13538349
0.14181336
0.14855058
0.15560986
0.16300658
0.17075689
0.17887767
0.0051717911
0.0053847071
0.0056078002
0.0058415569
0.0060864868
0.0063431242
0.0066120287
0.0068937866
0.0071890125
0.0074983501
0.007822474
0.008162091
0.0085179418
0.0088908024
0.0092814858
0.0096908442
0.01011977
0.010569199
0.011040111
0.011533533
0.012050541
0.012592263
0.013159879
0.013754629
0.014377808
0.015030776
0.015714956
0.016431842
0.017182996
0.017970056
0.018794738
0.019658842
0.020564252
0.021512941
0.02250698
0.023548535
0.024639878
0.02578339
0.026981564
0.028237012
0.029552473
0.030930816
0.032375046
0.033888313
0.035473917
0.037135316
0.038876133
0.040700164
0.042611388
0.044613972
0.046712283
0.048910898
0.051214611
0.053628445
0.056157666
0.058807789
0.061584593
0.064494134
0.067542756
0.070737109
0.074084158
0.077591203
0.081265892
0.085116238
0.089150638
0.093377892
0.097807216
0.10244827
0.10731118
0.11240654
0.11774547
0.12333962
0.12920117
0.13534292
0.14177826
0.14852122
0.15558651
0.16298953
0.17074643
0.17887413
0.005008261
0.0052213735
0.0054446724
0.0056786447
0.0059238006
0.0061806746
0.006449827
0.0067318447
0.0070273426
0.0073369653
0.0076613879
0.0080013178
0.0083574964
0.0087307004
0.0091217437
0.009531479
0.0099607999
0.010410643
0.010881988
0.011375864
0.011893348
0.012435568
0.013003707
0.013599004
0.014222756
0.014876325
0.015561135
0.01627868
0.017030525
0.017818309
0.01864375
0.019508649
0.020414891
0.021364453
0.022359406
0.023401919
0.024494266
0.025638829
0.026838105
0.028094707
0.029411378
0.030790988
0.032236546
0.033751204
0.035338266
0.037001193
0.03874361
0.040569319
0.042482299
0.044486724
0.046586965
0.048787601
0.051093431
0.053509485
0.056041031
0.05869359
0.061472947
0.064385162
0.067436587
0.070633877
0.073984003
0.077494272
0.081172338
0.085026224
0.089064334
0.093295473
0.097728869
0.10237419
0.10724157
0.11234161
0.11768545
0.12328474
0.12915169
0.13529908
0.14174033
0.14848949
0.15556128
0.1629711
0.17073514
0.17887031
0.0048329253
0.0050462482
0.0052697675
0.0055039708
0.0057493686
0.0060064962
0.0062759143
0.0065582102
0.0068539998
0.007163928
0.0074886706
0.0078289359
0.0081854658
0.0085590379
0.0089504669
0.0093606062
0.0097903505
0.010240637
0.010712447
0.01120681
0.011724804
0.012267559
0.012836258
0.013432141
0.014056508
0.014710721
0.015396206
0.016114458
0.016867044
0.017655604
0.018481858
0.019347609
0.020254744
0.021205241
0.022201174
0.023244714
0.024338138
0.025483828
0.026684285
0.027942125
0.029260093
0.030641062
0.032088044
0.033604194
0.035192819
0.036857383
0.038601516
0.040429023
0.042343888
0.044350287
0.046452595
0.048655399
0.0509635
0.053381933
0.055915973
0.058571144
0.061353238
0.064268321
0.067322751
0.070523189
0.073876614
0.07739034
0.081072029
0.08492971
0.088971796
0.093207101
0.097644863
0.10229476
0.10716693
0.112272
0.1176211
0.1232259
0.12909862
0.13525207
0.14169967
0.14845547
0.15553422
0.16295135
0.17072302
0.1788662
0.0046462067
0.0048597535
0.0050835074
0.0053179564
0.0055636118
0.0058210092
0.00609071
0.0063733022
0.0066694021
0.0069796555
0.0073047388
0.007645361
0.008002265
0.008376229
0.0087680685
0.009178638
0.0096088329
0.010059591
0.010531896
0.011026778
0.011545315
0.012088639
0.012657934
0.013254442
0.013879464
0.014534362
0.015220566
0.015939571
0.016692945
0.017482332
0.018309453
0.019176111
0.020084197
0.02103569
0.022032667
0.0230773
0.024171869
0.025318761
0.026520475
0.027779634
0.029098983
0.030481399
0.031929897
0.033447635
0.035037925
0.036704233
0.038450194
0.040279616
0.042196487
0.044204988
0.046309499
0.048514611
0.050825131
0.053246098
0.055782792
0.058440745
0.061225754
0.064143891
0.067201521
0.070405312
0.073762251
0.077279658
0.080965204
0.084826927
0.088873248
0.093112991
0.097555402
0.10221017
0.10708744
0.11219786
0.11755257
0.12316324
0.12904212
0.13520201
0.14165636
0.14841925
0.15550541
0.1629303
0.17071012
0.17886184
0.0044485555
0.0046623391
0.0048863412
0.0051210502
0.005366978
0.0056246609
0.0058946607
0.0061775664
0.0064739947
0.0067845921
0.0071100359
0.0074510359
0.0078083356
0.0081827143
0.0085749883
0.0089860131
0.009416685
0.0098679432
0.010340772
0.010836202
0.011355314
0.01189924
0.012469166
0.013066336
0.01369205
0.014347675
0.015034639
0.015754441
0.01650865
0.017298912
0.018126949
0.018994568
0.01990366
0.020856208
0.021854289
0.022900081
0.023995863
0.025144025
0.026347071
0.027607625
0.028928436
0.030312383
0.031762486
0.033281907
0.034873958
0.036542113
0.038290009
0.040121457
0.042040452
0.044051179
0.046158022
0.048365576
0.050678656
0.053102305
0.05564181
0.058302708
0.061090802
0.064012173
0.067073191
0.070280531
0.073641189
0.077162493
0.080852123
0.084718124
0.088768928
0.093013368
0.097460701
0.10212063
0.1070033
0.11211938
0.11748002
0.12309691
0.1289823
0.13514902
0.14161052
0.1483809
0.15547491
0.16290803
0.17069647
0.17885721
0.0042382427
0.0044454322
0.0046625251
0.0048899946
0.0051283368
0.0053780716
0.0056397434
0.0059139229
0.006201208
0.0065022251
0.0068176308
0.0071481127
0.0074943917
0.0078572228
0.0082373972
0.0086357441
0.0090531321
0.0094904714
0.0099487158
0.010428865
0.010931965
0.011459114
0.012011461
0.012590211
0.013196625
0.013832027
0.014497802
0.015195402
0.015926348
0.016692235
0.017494731
0.018335589
0.01921664
0.020139807
0.021107103
0.022120637
0.02318262
0.024295368
0.025461307
0.026682979
0.02796305
0.02930431
0.030709685
0.03218224
0.033725185
0.035341886
0.037035869
0.038810827
0.040670631
0.042619337
0.044661196
0.046800659
0.049042393
0.051391286
0.05385246
0.056431284
0.05913338
0.061964642
0.064931244
0.068039655
0.071296655
0.074709346
0.07828517
0.082031926
0.085957784
0.090071306
0.094381463
0.098897653
0.10362973
0.108588
0.1137833
0.11922693
0.12493079
0.1309073
0.1371695
0.14373104
0.15060625
0.15781009
0.1653583
0.17326733
0.0040135417
0.0042073057
0.0044103312
0.0046230611
0.0048459591
0.0050795115
0.0053242273
0.0055806404
0.0058493099
0.0061308216
0.0064257895
0.0067348567
0.0070586974
0.0073980176
0.0077535574
0.0081260921
0.0085164341
0.0089254347
0.0093539857
0.0098030217
0.010273522
0.010766513
0.011283069
0.011824317
0.012391437
0.012985666
0.013608301
0.014260697
0.01494428
0.015660538
0.016411035
0.017197407
0.018021368
0.018884716
0.019789334
0.020737193
0.021730362
0.022771006
0.023861395
0.025003906
0.026201031
0.027455381
0.028769692
0.030146828
0.031589795
0.033101738
0.034685954
0.036345899
0.038085193
0.039907628
0.041817179
0.043818011
0.045914486
0.048111176
0.050412873
0.052824596
0.055351603
0.057999407
0.06077378
0.063680775
0.066726729
0.069918286
0.073262406
0.076766382
0.080437855
0.084284831
0.088315701
0.092539254
0.096964702
0.1016017
0.10646035
0.11155125
0.11688551
0.12247476
0.12833118
0.13446756
0.14089726
0.14763432
0.15469343
0.16208997
0.0037794006
0.0039597502
0.0041487202
0.0043467227
0.0045541894
0.0047715728
0.004999347
0.0052380085
0.0054880779
0.0057501006
0.0060246478
0.0063123183
0.0066137395
0.0069295686
0.0072604944
0.0076072386
0.0079705573
0.0083512429
0.0087501255
0.009168075
0.0096060028
0.010064864
0.010545659
0.011049437
0.011577296
0.012130387
0.012709917
0.013317149
0.013953407
0.01462008
0.01531862
0.016050552
0.016817471
0.01762105
0.018463042
0.019345282
0.020269695
0.021238297
0.022253199
0.023316615
0.024430865
0.025598378
0.0268217
0.028103499
0.02944657
0.030853843
0.032328386
0.033873415
0.035492299
0.03718857
0.038965925
0.040828241
0.04277958
0.044824196
0.046966549
0.049211311
0.051563377
0.054027876
0.056610184
0.05931593
0.062151017
0.065121627
0.068234238
0.071495638
0.074912939
0.078493594
0.082245412
0.086176574
0.090295654
0.094611634
0.099133926
0.10387239
0.10883737
0.11403968
0.11949067
0.12520224
0.13118682
0.13745748
0.14402789
0.15091238
0.0035363664
0.0037033122
0.0038782378
0.0040615245
0.0042535721
0.0044547994
0.0046656451
0.0048865692
0.0051180533
0.0053606022
0.0056147449
0.0058810356
0.0061600551
0.0064524117
0.0067587431
0.0070797172
0.007416034
0.0077684271
0.0081376647
0.0085245523
0.0089299334
0.0093546921
0.0097997548
0.010266092
0.010754721
0.011266706
0.011803166
0.012365269
0.012954241
0.013571367
0.014217992
0.014895527
0.01560545
0.016349308
0.017128723
0.017945396
0.018801107
0.019697723
0.020637199
0.021621583
0.022653023
0.023733767
0.024866173
0.02605271
0.027295966
0.028598652
0.029963608
0.031393813
0.032892383
0.034462589
0.036107853
0.037831764
0.039638081
0.041530744
0.04351388
0.045591813
0.047769076
0.050050417
0.05244081
0.054945469
0.057569855
0.060319693
0.063200978
0.066219994
0.069383326
0.072697871
0.076170858
0.079809861
0.083622815
0.087618037
0.091804238
0.096190548
0.10078653
0.10560221
0.1106481
0.11593518
0.121475
0.12727963
0.13336174
0.13973458
0.0032850078
0.0034385597
0.0035994512
0.003768033
0.0039446729
0.004129756
0.004323686
0.0045268857
0.0047397982
0.0049628879
0.0051966413
0.0054415681
0.0056982024
0.005967104
0.0062488592
0.0065440824
0.0068534174
0.0071775389
0.0075171537
0.0078730024
0.0082458611
0.0086365427
0.0090458994
0.0094748239
0.0099242515
0.010395162
0.010888583
0.011405591
0.011947312
0.012514928
0.013109677
0.013732856
0.014385824
0.015070005
0.015786891
0.016538045
0.017325106
0.01814979
0.019013895
0.019919306
0.020867997
0.021862037
0.022903595
0.023994941
0.025138455
0.026336631
0.027592083
0.028907548
0.030285894
0.031730128
0.033243399
0.034829008
0.036490411
0.038231233
0.04005527
0.0419665
0.04396909
0.046067408
0.048266029
0.05056975
0.052983592
0.055512821
0.058162953
0.060939766
0.063849316
0.066897949
0.070092312
0.073439373
0.07694643
0.080621131
0.08447149
0.088505905
0.092733172
0.097162512
0.10180358
0.10666651
0.11176189
0.11710084
0.122695
0.12855658
0.0030259134
0.0031660807
0.0033129477
0.0034668349
0.0036280777
0.0037970278
0.0039740536
0.0041595412
0.004353895
0.004557539
0.0047709171
0.0049944948
0.0052287596
0.0054742223
0.0057314182
0.0060009083
0.0062832803
0.0065791499
0.0068891623
0.0072139936
0.0075543522
0.0079109804
0.0082846558
0.0086761935
0.0090864471
0.0095163115
0.009966724
0.010438667
0.010933169
0.01145131
0.011994218
0.012563079
0.013159132
0.013783677
0.014438076
0.015123757
0.015842215
0.016595017
0.017383803
0.018210296
0.019076296
0.019983692
0.020934464
0.021930684
0.022974526
0.024068265
0.025214287
0.026415092
0.027673297
0.028991647
0.030373016
0.031820418
0.033337008
0.034926094
0.036591142
0.038335783
0.04016382
0.042079242
0.044086224
0.046189145
0.048392589
0.050701362
0.0531205
0.055655277
0.058311221
0.061094125
0.064010057
0.067065377
0.070266748
0.07362115
0.0771359
0.080818661
0.084677467
0.088720731
0.092957271
0.097396326
0.10204758
0.10692117
0.11202773
0.11737839
0.0027596907
0.0028864819
0.0030193335
0.0031585353
0.0033043909
0.0034572183
0.0036173508
0.0037851376
0.0039609446
0.0041451552
0.0043381712
0.0045404133
0.0047523228
0.0049743617
0.0052070141
0.0054507876
0.0057062136
0.0059738493
0.0062542783
0.006548112
0.0068559914
0.0071785878
0.0075166048
0.0078707794
0.0082418841
0.0086307282
0.0090381596
0.0094650669
0.009912381
0.010381078
0.010872178
0.011386755
0.011925929
0.012490877
0.01308283
0.013703079
0.014352978
0.015033942
0.015747459
0.016495082
0.017278444
0.018099252
0.018959296
0.019860451
0.020804684
0.021794053
0.022830715
0.023916932
0.025055072
0.026247618
0.02749717
0.028806453
0.030178322
0.031615769
0.033121929
0.034700086
0.036353683
0.038086325
0.03990179
0.041804039
0.043797219
0.045885677
0.048073967
0.050366862
0.052769362
0.055286706
0.057924385
0.06068815
0.063584029
0.066618336
0.06979769
0.073129023
0.0766196
0.080277034
0.084109302
0.088124759
0.092332163
0.09674069
0.10135995
0.10620003
0.0024869645
0.0026003874
0.0027192318
0.0028437569
0.0029742342
0.0031109484
0.0032541974
0.0034042938
0.0035615649
0.0037263535
0.0038990192
0.0040799383
0.0042695056
0.0044681343
0.0046762576
0.0048943294
0.0051228253
0.0053622436
0.0056131064
0.0058759607
0.0061513798
0.0064399643
0.0067423436
0.007059177
0.0073911556
0.0077390033
0.0081034787
0.0084853766
0.0088855298
0.0093048111
0.0097441347
0.010204459
0.010686787
0.011192172
0.011721715
0.012276571
0.01285795
0.01346712
0.01410541
0.014774211
0.015474982
0.016209251
0.01697862
0.017784766
0.018629447
0.019514506
0.020441873
0.021413569
0.022431715
0.023498529
0.02461634
0.025787584
0.027014816
0.028300712
0.029648077
0.031059848
0.032539105
0.034089074
0.035713133
0.037414827
0.039197864
0.041066135
0.043023712
0.045074866
0.047224069
0.049476008
0.051835595
0.054307975
0.056898539
0.059612938
0.06245709
0.065437199
0.068559763
0.071831591
0.07525982
0.078851925
0.082615741
0.086559474
0.090691726
0.095021507
0.0022083753
0.002308437
0.0024132816
0.0025231378
0.0026382451
0.0027588545
0.0028852292
0.0030176445
0.0031563894
0.0033017664
0.0034540925
0.0036137
0.0037809368
0.0039561677
0.0041397749
0.0043321586
0.0045337386
0.0047449544
0.0049662665
0.0051981577
0.0054411336
0.0056957242
0.0059624845
0.0062419965
0.0065348695
0.0068417424
0.0071632843
0.0075001965
0.0078532137
0.0082231057
0.0086106792
0.0090167794
0.009442292
0.0098881449
0.01035531
0.010844807
0.011357703
0.011895116
0.012458219
0.013048238
0.013666462
0.014314239
0.01499298
0.015704166
0.016449349
0.017230153
0.01804828
0.018905516
0.01980373
0.020744879
0.021731018
0.022764296
0.023846967
0.024981392
0.026170044
0.027415517
0.028720525
0.030087916
0.03152067
0.033021913
0.034594919
0.036243118
0.037970103
0.039779642
0.041675681
0.043662354
0.045743995
0.047925142
0.050210552
0.052605209
0.055114336
0.057743405
0.060498148
0.063384574
0.066408976
0.069577951
0.07289841
0.076377593
0.080023088
0.083842846
0.0019245781
0.002011285
0.0021021365
0.0021973307
0.0022970753
0.0024015877
0.0025110958
0.0026258385
0.002746066
0.0028720405
0.0030040367
0.0031423425
0.0032872595
0.0034391036
0.0035982061
0.0037649139
0.0039395906
0.0041226171
0.0043143925
0.0045153351
0.004725883
0.0049464955
0.0051776536
0.0054198615
0.0056736473
0.0059395646
0.0062181931
0.0065101406
0.0068160437
0.0071365696
0.0074724172
0.0078243189
0.0081930422
0.0085793911
0.0089842083
0.0094083765
0.0098528207
0.01031851
0.010806461
0.011317736
0.011853452
0.012414775
0.013002931
0.013619202
0.014264932
0.014941529
0.015650469
0.016393298
0.017171635
0.017987179
0.018841707
0.019737083
0.02067526
0.021658284
0.022688298
0.023767549
0.02489839
0.026083288
0.027324826
0.028625713
0.029988784
0.031417014
0.032913515
0.034481552
0.036124544
0.037846075
0.039649899
0.041539949
0.043520347
0.045595412
0.04776967
0.050047862
0.052434955
0.054936157
0.057556921
0.060302963
0.063180272
0.066195122
0.069354088
0.072664058
0.0016362408
0.0017095985
0.0017864627
0.0018670011
0.0019513893
0.0020398113
0.00213246
0.0022295374
0.0023312552
0.0024378352
0.0025495098
0.0026665227
0.002789129
0.002917596
0.0030522039
0.0031932463
0.0033410307
0.0034958795
0.0036581303
0.0038281369
0.0040062702
0.0041929185
0.004388489
0.004593408
0.0048081226
0.0050331009
0.0052688336
0.0055158348
0.0057746431
0.0060458229
0.0063299656
0.0066276909
0.006939648
0.0072665172
0.0076090115
0.0079678776
0.0083438983
0.0087378935
0.0091507224
0.0095832854
0.010036526
0.010511432
0.011009039
0.011530434
0.012076752
0.012649185
0.013248981
0.013877449
0.014535959
0.015225947
0.015948918
0.016706448
0.01750019
0.018331874
0.019203315
0.020116412
0.021073157
0.022075636
0.023126036
0.024226647
0.02537987
0.026588219
0.02785433
0.029180963
0.030571012
0.032027508
0.033553628
0.035152699
0.036828209
0.038583812
0.040423336
0.042350793
0.044370387
0.046486522
0.048703811
0.051027092
0.053461431
0.056012136
0.058684769
0.061485161
0.0013440424
0.0014040556
0.0014669376
0.0015328254
0.0016018627
0.0016742001
0.0017499953
0.0018294136
0.0019126282
0.0019998206
0.0020911809
0.0021869083
0.0022872118
0.0023923098
0.0025024318
0.0026178177
0.0027387193
0.0028654002
0.0029981367
0.0031372182
0.003282948
0.0034356441
0.0035956392
0.0037632825
0.0039389394
0.004122993
0.0043158447
0.0045179151
0.0047296449
0.0049514958
0.0051839516
0.0054275192
0.0056827298
0.00595014
0.006230333
0.0065239197
0.0068315404
0.007153866
0.0074915995
0.0078454772
0.0082162711
0.0086047896
0.0090118801
0.0094384303
0.0098853705
0.010353675
0.010844366
0.011358513
0.011897237
0.012461713
0.013053172
0.013672904
0.014322261
0.015002658
0.01571558
0.01646258
0.017245289
0.018065413
0.018924741
0.019825146
0.020768592
0.021757137
0.022792936
0.023878249
0.025015442
0.026206995
0.027455506
0.028763699
0.030134427
0.031570678
0.033075584
0.034652429
0.036304649
0.038035849
0.039849804
0.04175047
0.043741992
0.045828712
0.048015182
0.050306169
0.0010486715
0.0010953443
0.0011442482
0.0011954897
0.0012491806
0.0013054381
0.0013643847
0.0014261491
0.0014908659
0.0015586763
0.0016297282
0.0017041764
0.0017821835
0.0018639193
0.0019495624
0.0020392993
0.0021333258
0.0022318469
0.0023350775
0.0024432428
0.0025565785
0.002675332
0.002799762
0.0029301401
0.0030667505
0.0032098911
0.0033598741
0.0035170267
0.0036816914
0.0038542274
0.004035011
0.0042244364
0.0044229167
0.0046308847
0.0048487941
0.00507712
0.0053163603
0.0055670367
0.005829696
0.006104911
0.0063932817
0.0066954372
0.0070120364
0.0073437696
0.0076913603
0.0080555665
0.0084371826
0.0088370407
0.0092560128
0.0096950126
0.010154998
0.010636971
0.011141983
0.011671136
0.012225584
0.012806535
0.013415257
0.014053077
0.014721387
0.015421642
0.016155372
0.016924175
0.017729729
0.01857379
0.019458198
0.020384883
0.021355866
0.022373263
0.023439294
0.024556284
0.025726668
0.026952999
0.02823795
0.029584326
0.03099506
0.032473231
0.034022061
0.035644928
0.037345372
0.039127101
0.00075082491
0.00078416039
0.00081908935
0.00085568799
0.0008940361
0.00093421733
0.00097631929
0.0010204338
0.0010666571
0.0011150899
0.0011658379
0.0012190118
0.0012747274
0.0013331064
0.001394276
0.0014583697
0.0015255271
0.0015958948
0.0016696262
0.0017468822
0.0018278311
0.0019126495
0.0020015224
0.0020946436
0.0021922162
0.002294453
0.0024015769
0.0025138215
0.0026314317
0.0027546638
0.0028837867
0.0030190819
0.0031608445
0.0033093837
0.0034650233
0.0036281028
0.0037989778
0.003978021
0.0041656229
0.0043621925
0.0045681585
0.0047839701
0.005010098
0.0052470352
0.0054952985
0.0057554293
0.0060279948
0.0063135896
0.0066128363
0.0069263877
0.0072549275
0.0075991721
0.0079598724
0.0083378148
0.0087338237
0.0091487626
0.0095835364
0.010039093
0.010516427
0.011016578
0.011540637
0.012089747
0.012665106
0.013267968
0.013899648
0.014561524
0.015255039
0.015981706
0.016743108
0.017540907
0.018376842
0.019252737
0.020170502
0.021132137
0.022139741
0.02319551
0.024301747
0.025460864
0.02667539
0.027947972
0.00045120538
0.00047120576
0.0004921622
0.00051412039
0.00053712824
0.0005612359
0.00058649596
0.00061296351
0.00064069625
0.00066975467