/*--------------------------------*- C++ -*----------------------------------*\
| =========                 |                                                 |
| \\      /  F ield         | OpenFOAM: The Open Source CFD Toolbox           |
|  \\    /   O peration     | Version:  2512                                  |
|   \\  /    A nd           | Website:  www.openfoam.com                      |
|    \\/     M anipulation  |                                                 |
\*---------------------------------------------------------------------------*/
FoamFile
{
    version     2.0;
    format      ascii;
    arch        "LSB;label=32;scalar=64";
    class       volVectorField;
    location    "0";
    object      U;
}
// * * * * * * * * * * * * * * * * * * * * * * * * * * * * * * * * * * * * * //

dimensions      [0 1 -1 0 0 0 0];

internalField   nonuniform List<vector> 
10240
(
(0.075789037 0.00034279024 0)
(0.075789037 0.00034285833 0)
(0.075789037 0.00034282743 0)
(0.075789037 0.00034268283 0)
(0.075789037 0.00034240827 0)
(0.075789037 0.00034198582 0)
(0.075789037 0.00034139577 0)
(0.075789037 0.00034061653 0)
(0.075789037 0.00033962451 0)
(0.075789037 0.00033839408 0)
(0.075789037 0.00033689745 0)
(0.075789037 0.00033510467 0)
(0.075789037 0.00033298366 0)
(0.075789037 0.00033050019 0)
(0.075789037 0.00032761808 0)
(0.075789037 0.00032429933 0)
(0.075789037 0.00032050443 0)
(0.075789037 0.0003161928 0)
(0.075789037 0.00031132328 0)
(0.075789037 0.00030585484 0)
(0.075789037 0.00029974749 0)
(0.075789037 0.00029296332 0)
(0.075789037 0.00028546781 0)
(0.075789037 0.00027723136 0)
(0.075789037 0.00026823104 0)
(0.075789037 0.00025845258 0)
(0.075789037 0.00024789254 0)
(0.075789037 0.0002365606 0)
(0.075789037 0.00022448199 0)
(0.075789037 0.00021169974 0)
(0.075789037 0.00019827683 0)
(0.075789037 0.00018429791 0)
(0.075789037 0.00016987031 0)
(0.075789037 0.00015512429 0)
(0.075789037 0.00014021201 0)
(0.075789037 0.00012530514 0)
(0.075789037 0.00011059085 0)
(0.075789037 9.6266016e-05 0)
(0.075789037 8.2529736e-05 0)
(0.075789037 6.9574415e-05 0)
(0.075789037 5.7575786e-05 0)
(0.075789037 4.668268e-05 0)
(0.075789037 3.7007439e-05 0)
(0.075789037 2.8618087e-05 0)
(0.075789037 2.1533354e-05 0)
(0.075789037 1.5721494e-05 0)
(0.075789037 1.1103454e-05 0)
(0.075789037 7.5603732e-06 0)
(0.075789037 4.9447295e-06 0)
(0.075789037 3.0937806e-06 0)
(0.075789037 1.8434957e-06 0)
(0.075789037 1.0410355e-06 0)
(0.075789037 5.5413163e-07 0)
(0.075789037 2.7637892e-07 0)
(0.075789037 1.2832354e-07 0)
(0.075789037 5.5068242e-08 0)
(0.075789037 2.1670309e-08 0)
(0.075789037 7.7523738e-09 0)
(0.075789037 2.4973219e-09 0)
(0.075789037 7.1686973e-10 0)
(0.075789037 1.8127526e-10 0)
(0.075789037 3.9873369e-11 0)
(0.075789037 7.523939e-12 0)
(0.075789037 1.1995061e-12 0)
(0.075789037 1.5888327e-13 0)
(0.075789037 1.7166365e-14 0)
(0.075789037 1.4825898e-15 0)
(0.075789037 1.0010566e-16 0)
(0.075789037 5.1569548e-18 0)
(0.075789037 1.9732555e-19 0)
(0.075789037 5.4455358e-21 0)
(0.075789037 1.0493454e-22 0)
(0.075789037 1.3626605e-24 0)
(0.075789037 1.1468355e-26 0)
(0.075789037 5.993006e-29 0)
(0.075789037 1.8551275e-31 0)
(0.075789037 3.2302299e-34 0)
(0.075789037 2.989246e-37 0)
(0.075789037 1.3812504e-40 0)
(0.075789037 2.9758993e-44 0)
(0.075789037 0.0003497317 0)
(0.075789037 0.00035008256 0)
(0.075789037 0.00035034275 0)
(0.075789037 0.00035049715 0)
(0.075789037 0.00035052898 0)
(0.075789037 0.0003504196 0)
(0.075789037 0.00035014846 0)
(0.075789037 0.0003496929 0)
(0.075789037 0.00034902806 0)
(0.075789037 0.00034812678 0)
(0.075789037 0.00034695947 0)
(0.075789037 0.00034549409 0)
(0.075789037 0.00034369611 0)
(0.075789037 0.00034152852 0)
(0.075789037 0.00033895195 0)
(0.075789037 0.00033592484 0)
(0.075789037 0.0003324037 0)
(0.075789037 0.00032834352 0)
(0.075789037 0.00032369831 0)
(0.075789037 0.00031842185 0)
(0.075789037 0.00031246857 0)
(0.075789037 0.00030579472 0)
(0.075789037 0.00029835978 0)
(0.075789037 0.00029012806 0)
(0.075789037 0.00028107068 0)
(0.075789037 0.00027116773 0)
(0.075789037 0.00026041072 0)
(0.075789037 0.00024880516 0)
(0.075789037 0.00023637325 0)
(0.075789037 0.00022315659 0)
(0.075789037 0.00020921863 0)
(0.075789037 0.0001946467 0)
(0.075789037 0.00017955343 0)
(0.075789037 0.00016407709 0)
(0.075789037 0.00014838076 0)
(0.075789037 0.00013264981 0)
(0.075789037 0.00011708758 0)
(0.075789037 0.00010190912 0)
(0.075789037 8.7332891e-05 0)
(0.075789037 7.3570855e-05 0)
(0.075789037 6.08173e-05 0)
(0.075789037 4.9237351e-05 0)
(0.075789037 3.895617e-05 0)
(0.075789037 3.0050121e-05 0)
(0.075789037 2.2541161e-05 0)
(0.075789037 1.6395522e-05 0)
(0.075789037 1.1527308e-05 0)
(0.075789037 7.8069746e-06 0)
(0.075789037 5.0738615e-06 0)
(0.075789037 3.1512266e-06 0)
(0.075789037 1.8616982e-06 0)
(0.075789037 1.0409559e-06 0)
(0.075789037 5.4781688e-07 0)
(0.075789037 2.6969027e-07 0)
(0.075789037 1.2336882e-07 0)
(0.075789037 5.2053493e-08 0)
(0.075789037 2.0094395e-08 0)
(0.075789037 7.0340858e-09 0)
(0.075789037 2.2110146e-09 0)
(0.075789037 6.1737501e-10 0)
(0.075789037 1.5133503e-10 0)
(0.075789037 3.2145048e-11 0)
(0.075789037 5.8326488e-12 0)
(0.075789037 8.8996812e-13 0)
(0.075789037 1.1223963e-13 0)
(0.075789037 1.1480154e-14 0)
(0.075789037 9.3268092e-16 0)
(0.075789037 5.882533e-17 0)
(0.075789037 2.8088182e-18 0)
(0.075789037 9.8768136e-20 0)
(0.075789037 2.4812366e-21 0)
(0.075789037 4.3072871e-23 0)
(0.075789037 4.981094e-25 0)
(0.075789037 3.6860956e-27 0)
(0.075789037 1.6701142e-29 0)
(0.075789037 4.4135963e-32 0)
(0.075789037 6.4500374e-35 0)
(0.075789037 4.916263e-38 0)
(0.075789037 1.8327013e-41 0)
(0.075789037 3.1136348e-45 0)
(0.075789037 0.0003559986 0)
(0.075789037 0.00035657729 0)
(0.075789037 0.00035706799 0)
(0.075789037 0.00035745466 0)
(0.075789037 0.0003577194 0)
(0.075789037 0.00035784228 0)
(0.075789037 0.00035780123 0)
(0.075789037 0.00035757187 0)
(0.075789037 0.00035712735 0)
(0.075789037 0.00035643824 0)
(0.075789037 0.00035547244 0)
(0.075789037 0.00035419504 0)
(0.075789037 0.00035256835 0)
(0.075789037 0.0003505519 0)
(0.075789037 0.00034810253 0)
(0.075789037 0.00034517458 0)
(0.075789037 0.0003417202 0)
(0.075789037 0.00033768979 0)
(0.075789037 0.00033303263 0)
(0.075789037 0.00032769767 0)
(0.075789037 0.00032163457 0)
(0.075789037 0.00031479504 0)
(0.075789037 0.00030713436 0)
(0.075789037 0.00029861332 0)
(0.075789037 0.00028920037 0)
(0.075789037 0.00027887411 0)
(0.075789037 0.00026762605 0)
(0.075789037 0.00025546355 0)
(0.075789037 0.0002424128 0)
(0.075789037 0.00022852186 0)
(0.075789037 0.00021386329 0)
(0.075789037 0.00019853635 0)
(0.075789037 0.00018266831 0)
(0.075789037 0.00016641464 0)
(0.075789037 0.00014995764 0)
(0.075789037 0.00013350315 0)
(0.075789037 0.00011727528 0)
(0.075789037 0.00010150874 0)
(0.075789037 8.643921e-05 0)
(0.075789037 7.2291796e-05 0)
(0.075789037 5.9268518e-05 0)
(0.075789037 4.7535704e-05 0)
(0.075789037 3.721264e-05 0)
(0.075789037 2.8362896e-05 0)
(0.075789037 2.0989699e-05 0)
(0.075789037 1.5036397e-05 0)
(0.075789037 1.0392456e-05 0)
(0.075789037 6.904622e-06 0)
(0.075789037 4.3919823e-06 0)
(0.075789037 2.6629158e-06 0)
(0.075789037 1.5314966e-06 0)
(0.075789037 8.3101965e-07 0)
(0.075789037 4.2294776e-07 0)
(0.075789037 2.0060031e-07 0)
(0.075789037 8.8035106e-08 0)
(0.075789037 3.5470121e-08 0)
(0.075789037 1.3008221e-08 0)
(0.075789037 4.3014738e-09 0)
(0.075789037 1.2692571e-09 0)
(0.075789037 3.304128e-10 0)
(0.075789037 7.4935934e-11 0)
(0.075789037 1.4603647e-11 0)
(0.075789037 2.4087409e-12 0)
(0.075789037 3.3070868e-13 0)
(0.075789037 3.7109279e-14 0)
(0.075789037 3.3355752e-15 0)
(0.075789037 2.3491908e-16 0)
(0.075789037 1.2652798e-17 0)
(0.075789037 5.0745468e-19 0)
(0.075789037 1.4717374e-20 0)
(0.075789037 2.9889024e-22 0)
(0.075789037 4.1028931e-24 0)
(0.075789037 3.6618633e-26 0)
(0.075789037 2.036212e-28 0)
(0.075789037 6.7313818e-31 0)
(0.075789037 1.2565919e-33 0)
(0.075789037 1.25182e-36 0)
(0.075789037 6.2543231e-40 0)
(0.075789037 1.4638284e-43 0)
(0.075789037 1.4891529e-47 0)
(0.075789037 0.00036154338 0)
(0.075789037 0.00036229071 0)
(0.075789037 0.00036294653 0)
(0.075789037 0.00036349324 0)
(0.075789037 0.00036391119 0)
(0.075789037 0.00036417849 0)
(0.075789037 0.0003642708 0)
(0.075789037 0.00036416124 0)
(0.075789037 0.00036382019 0)
(0.075789037 0.00036321514 0)
(0.075789037 0.00036231059 0)
(0.075789037 0.00036106799 0)
(0.075789037 0.00035944568 0)
(0.075789037 0.00035739899 0)
(0.075789037 0.00035488031 0)
(0.075789037 0.00035183938 0)
(0.075789037 0.00034822368 0)
(0.075789037 0.00034397895 0)
(0.075789037 0.00033904997 0)
(0.075789037 0.00033338156 0)
(0.075789037 0.00032691979 0)
(0.075789037 0.0003196136 0)
(0.075789037 0.00031141661 0)
(0.075789037 0.00030228941 0)
(0.075789037 0.00029220204 0)
(0.075789037 0.00028113692 0)
(0.075789037 0.00026909195 0)
(0.075789037 0.0002560838 0)
(0.075789037 0.00024215119 0)
(0.075789037 0.00022735806 0)
(0.075789037 0.0002117962 0)
(0.075789037 0.00019558724 0)
(0.075789037 0.00017888336 0)
(0.075789037 0.00016186665 0)
(0.075789037 0.00014474647 0)
(0.075789037 0.00012775458 0)
(0.075789037 0.0001111379 0)
(0.075789037 9.5148856e-05 0)
(0.075789037 8.0033542e-05 0)
(0.075789037 6.6018459e-05 0)
(0.075789037 5.3296711e-05 0)
(0.075789037 4.2015054e-05 0)
(0.075789037 3.2263307e-05 0)
(0.075789037 2.4067703e-05 0)
(0.075789037 1.7389472e-05 0)
(0.075789037 1.2129374e-05 0)
(0.075789037 8.1380812e-06 0)
(0.075789037 5.2313263e-06 0)
(0.075789037 3.2078185e-06 0)
(0.075789037 1.8673619e-06 0)
(0.075789037 1.0265313e-06 0)
(0.075789037 5.2980545e-07 0)
(0.075789037 2.5508517e-07 0)
(0.075789037 1.1376965e-07 0)
(0.075789037 4.6642788e-08 0)
(0.075789037 1.7428917e-08 0)
(0.075789037 5.8806976e-09 0)
(0.075789037 1.7733816e-09 0)
(0.075789037 4.7259679e-10 0)
(0.075789037 1.0992826e-10 0)
(0.075789037 2.2016046e-11 0)
(0.075789037 3.7400397e-12 0)
(0.075789037 5.3011733e-13 0)
(0.075789037 6.1570372e-14 0)
(0.075789037 5.7443945e-15 0)
(0.075789037 4.212165e-16 0)
(0.075789037 2.3699242e-17 0)
(0.075789037 9.9651104e-19 0)
(0.075789037 3.04207e-20 0)
(0.075789037 6.5309405e-22 0)
(0.075789037 9.5217974e-24 0)
(0.075789037 9.0723427e-26 0)
(0.075789037 5.4156962e-28 0)
(0.075789037 1.9337284e-30 0)
(0.075789037 3.9249371e-33 0)
(0.075789037 4.282317e-36 0)
(0.075789037 2.3618705e-39 0)
(0.075789037 6.1554748e-43 0)
(0.075789037 7.0389756e-47 0)
(0.075789037 3.2557289e-51 0)
(0.075789037 0.00036632869 0)
(0.075789037 0.00036718231 0)
(0.075789037 0.00036793425 0)
(0.075789037 0.00036856474 0)
(0.075789037 0.00036905168 0)
(0.075789037 0.00036937047 0)
(0.075789037 0.00036949377 0)
(0.075789037 0.0003693914 0)
(0.075789037 0.00036903012 0)
(0.075789037 0.00036837353 0)
(0.075789037 0.00036738194 0)
(0.075789037 0.00036601233 0)
(0.075789037 0.0003642184 0)
(0.075789037 0.00036195061 0)
(0.075789037 0.00035915647 0)
(0.075789037 0.00035578084 0)
(0.075789037 0.00035176652 0)
(0.075789037 0.00034705496 0)
(0.075789037 0.00034158723 0)
(0.075789037 0.00033530533 0)
(0.075789037 0.00032815374 0)
(0.075789037 0.00032008134 0)
(0.075789037 0.00031104374 0)
(0.075789037 0.00030100589 0)
(0.075789037 0.00028994511 0)
(0.075789037 0.00027785442 0)
(0.075789037 0.00026474597 0)
(0.075789037 0.00025065468 0)
(0.075789037 0.00023564161 0)
(0.075789037 0.00021979696 0)
(0.075789037 0.00020324231 0)
(0.075789037 0.00018613176 0)
(0.075789037 0.00016865142 0)
(0.075789037 0.000151017 0)
(0.075789037 0.00013346903 0)
(0.075789037 0.00011626546 0)
(0.075789037 9.9671713e-05 0)
(0.075789037 8.3948346e-05 0)
(0.075789037 6.9337037e-05 0)
(0.075789037 5.6045882e-05 0)
(0.075789037 4.4235428e-05 0)
(0.075789037 3.4007064e-05 0)
(0.075789037 2.539548e-05 0)
(0.075789037 1.8366613e-05 0)
(0.075789037 1.2821926e-05 0)
(0.075789037 8.6089722e-06 0)
(0.075789037 5.5371666e-06 0)
(0.075789037 3.3966655e-06 0)
(0.075789037 1.9776375e-06 0)
(0.075789037 1.0870748e-06 0)
(0.075789037 5.6085509e-07 0)
(0.075789037 2.6985274e-07 0)
(0.075789037 1.2023092e-07 0)
(0.075789037 4.9219962e-08 0)
(0.075789037 1.8356456e-08 0)
(0.075789037 6.1784083e-09 0)
(0.075789037 1.8574496e-09 0)
(0.075789037 4.9314795e-10 0)
(0.075789037 1.1419187e-10 0)
(0.075789037 2.2747386e-11 0)
(0.075789037 3.8398699e-12 0)
(0.075789037 5.4024678e-13 0)
(0.075789037 6.2208294e-14 0)
(0.075789037 5.7463532e-15 0)
(0.075789037 4.1655516e-16 0)
(0.075789037 2.3130948e-17 0)
(0.075789037 9.5812688e-19 0)
(0.075789037 2.8753509e-20 0)
(0.075789037 6.0544696e-22 0)
(0.075789037 8.6354461e-24 0)
(0.075789037 8.0262882e-26 0)
(0.075789037 4.6591591e-28 0)
(0.075789037 1.6120768e-30 0)
(0.075789037 3.158452e-33 0)
(0.075789037 3.3121071e-36 0)
(0.075789037 1.747423e-39 0)
(0.075789037 4.3334288e-43 0)
(0.075789037 4.6878779e-47 0)
(0.075789037 2.0380393e-51 0)
(0.075789037 3.2539997e-56 0)
(0.075789037 0.00037032808 0)
(0.075789037 0.00037122366 0)
(0.075789037 0.00037200053 0)
(0.075789037 0.00037263608 0)
(0.075789037 0.00037310508 0)
(0.075789037 0.0003733795 0)
(0.075789037 0.00037342826 0)
(0.075789037 0.00037321712 0)
(0.075789037 0.00037270849 0)
(0.075789037 0.00037186132 0)
(0.075789037 0.00037063105 0)
(0.075789037 0.00036896961 0)
(0.075789037 0.00036682552 0)
(0.075789037 0.00036414411 0)
(0.075789037 0.00036086787 0)
(0.075789037 0.00035693702 0)
(0.075789037 0.00035229027 0)
(0.075789037 0.00034686583 0)
(0.075789037 0.00034060272 0)
(0.075789037 0.00033344244 0)
(0.075789037 0.000325331 0)
(0.075789037 0.00031622128 0)
(0.075789037 0.00030607586 0)
(0.075789037 0.00029487018 0)
(0.075789037 0.000282596 0)
(0.075789037 0.00026926515 0)
(0.075789037 0.00025491323 0)
(0.075789037 0.00023960322 0)
(0.075789037 0.00022342869 0)
(0.075789037 0.00020651607 0)
(0.075789037 0.00018902588 0)
(0.075789037 0.00017115213 0)
(0.075789037 0.00015311972 0)
(0.075789037 0.00013517931 0)
(0.075789037 0.00011759944 0)
(0.075789037 0.00010065593 0)
(0.075789037 8.4618815e-05 0)
(0.075789037 6.9737571e-05 0)
(0.075789037 5.6225678e-05 0)
(0.075789037 4.4246093e-05 0)
(0.075789037 3.389935e-05 0)
(0.075789037 2.5216075e-05 0)
(0.075789037 1.815538e-05 0)
(0.075789037 1.2609954e-05 0)
(0.075789037 8.4177105e-06 0)
(0.075789037 5.3787026e-06 0)
(0.075789037 3.2750488e-06 0)
(0.075789037 1.8909222e-06 0)
(0.075789037 1.0296513e-06 0)
(0.075789037 5.2562656e-07 0)
(0.075789037 2.4991172e-07 0)
(0.075789037 1.0987173e-07 0)
(0.075789037 4.4313008e-08 0)
(0.075789037 1.6253084e-08 0)
(0.075789037 5.3695324e-09 0)
(0.075789037 1.5810903e-09 0)
(0.075789037 4.1017144e-10 0)
(0.075789037 9.2561973e-11 0)
(0.075789037 1.7917603e-11 0)
(0.075789037 2.9297242e-12 0)
(0.075789037 3.9786056e-13 0)
(0.075789037 4.4047728e-14 0)
(0.075789037 3.8952694e-15 0)
(0.075789037 2.6904755e-16 0)
(0.075789037 1.4160914e-17 0)
(0.075789037 5.5278943e-19 0)
(0.075789037 1.5534889e-20 0)
(0.075789037 3.0418268e-22 0)
(0.075789037 4.003458e-24 0)
(0.075789037 3.4046162e-26 0)
(0.075789037 1.791433e-28 0)
(0.075789037 5.5608823e-31 0)
(0.075789037 9.6642951e-34 0)
(0.075789037 8.8779756e-37 0)
(0.075789037 4.0471601e-40 0)
(0.075789037 8.541909e-44 0)
(0.075789037 7.7346057e-48 0)
(0.075789037 2.7634697e-52 0)
(0.075789037 3.5537235e-57 0)
(0.075789037 1.4868865e-62 0)
(0.075789037 0.00037352649 0)
(0.075789037 0.00037439899 0)
(0.075789037 0.0003751288 0)
(0.075789037 0.00037568987 0)
(0.075789037 0.00037605321 0)
(0.075789037 0.00037618667 0)
(0.075789037 0.00037605479 0)
(0.075789037 0.00037561862 0)
(0.075789037 0.00037483559 0)
(0.075789037 0.00037365949 0)
(0.075789037 0.00037204043 0)
(0.075789037 0.00036992498 0)
(0.075789037 0.00036725638 0)
(0.075789037 0.00036397496 0)
(0.075789037 0.0003600187 0)
(0.075789037 0.00035532406 0)
(0.075789037 0.00034982706 0)
(0.075789037 0.00034346468 0)
(0.075789037 0.00033617663 0)
(0.075789037 0.00032790745 0)
(0.075789037 0.00031860912 0)
(0.075789037 0.00030824397 0)
(0.075789037 0.00029678802 0)
(0.075789037 0.00028423467 0)
(0.075789037 0.00027059854 0)
(0.075789037 0.00025591937 0)
(0.075789037 0.00024026575 0)
(0.075789037 0.00022373828 0)
(0.075789037 0.0002064719 0)
(0.075789037 0.00018863679 0)
(0.075789037 0.00017043758 0)
(0.075789037 0.00015211016 0)
(0.075789037 0.00013391595 0)
(0.075789037 0.00011613321 0)
(0.075789037 9.9045627e-05 0)
(0.075789037 8.2928314e-05 0)
(0.075789037 6.8032321e-05 0)
(0.075789037 5.4568684e-05 0)
(0.075789037 4.269375e-05 0)
(0.075789037 3.2497606e-05 0)
(0.075789037 2.399743e-05 0)
(0.075789037 1.7137192e-05 0)
(0.075789037 1.1794357e-05 0)
(0.075789037 7.7931999e-06 0)
(0.075789037 4.9231819e-06 0)
(0.075789037 2.9598104e-06 0)
(0.075789037 1.6848806e-06 0)
(0.075789037 9.0311043e-07 0)
(0.075789037 4.5301928e-07 0)
(0.075789037 2.1123632e-07 0)
(0.075789037 9.0881751e-08 0)
(0.075789037 3.5784955e-08 0)
(0.075789037 1.2780478e-08 0)
(0.075789037 4.0995545e-09 0)
(0.075789037 1.1683259e-09 0)
(0.075789037 2.9231884e-10 0)
(0.075789037 6.337668e-11 0)
(0.075789037 1.173634e-11 0)
(0.075789037 1.8272492e-12 0)
(0.075789037 2.3505836e-13 0)
(0.075789037 2.4511518e-14 0)
(0.075789037 2.0289163e-15 0)
(0.075789037 1.3026831e-16 0)
(0.075789037 6.3253571e-18 0)
(0.075789037 2.2589479e-19 0)
(0.075789037 5.7545433e-21 0)
(0.075789037 1.0111032e-22 0)
(0.075789037 1.1809064e-24 0)
(0.075789037 8.8032604e-27 0)
(0.075789037 4.0060305e-29 0)
(0.075789037 1.0596273e-31 0)
(0.075789037 1.543794e-34 0)
(0.075789037 1.1677494e-37 0)
(0.075789037 4.2976635e-41 0)
(0.075789037 7.1657117e-45 0)
(0.075789037 5.0049871e-49 0)
(0.075789037 1.3436534e-53 0)
(0.075789037 1.2614185e-58 0)
(0.075789037 3.7327392e-64 0)
(0.075789037 3.1064717e-70 0)
(0.075789037 0.00037592039 0)
(0.075789037 0.00037670527 0)
(0.075789037 0.0003773167 0)
(0.075789037 0.00037772459 0)
(0.075789037 0.00037789563 0)
(0.075789037 0.00037779303 0)
(0.075789037 0.00037737639 0)
(0.075789037 0.00037660158 0)
(0.075789037 0.00037542068 0)
(0.075789037 0.00037378203 0)
(0.075789037 0.0003716303 0)
(0.075789037 0.0003689068 0)
(0.075789037 0.00036554991 0)
(0.075789037 0.00036149571 0)
(0.075789037 0.00035667885 0)
(0.075789037 0.00035103376 0)
(0.075789037 0.00034449611 0)
(0.075789037 0.00033700474 0)
(0.075789037 0.00032850393 0)
(0.075789037 0.00031894607 0)
(0.075789037 0.00030829484 0)
(0.075789037 0.00029652871 0)
(0.075789037 0.00028364473 0)
(0.075789037 0.00026966258 0)
(0.075789037 0.00025462855 0)
(0.075789037 0.00023861926 0)
(0.075789037 0.00022174479 0)
(0.075789037 0.00020415076 0)
(0.075789037 0.00018601896 0)
(0.075789037 0.0001675659 0)
(0.075789037 0.00014903907 0)
(0.075789037 0.00013071025 0)
(0.075789037 0.00011286593 0)
(0.075789037 9.5794832e-05 0)
(0.075789037 7.9773151e-05 0)
(0.075789037 6.5048313e-05 0)
(0.075789037 5.1822808e-05 0)
(0.075789037 4.0239769e-05 0)
(0.075789037 3.0372257e-05 0)
(0.075789037 2.2218048e-05 0)
(0.075789037 1.5701218e-05 0)
(0.075789037 1.0680932e-05 0)
(0.075789037 6.9667049e-06 0)
(0.075789037 4.3382154e-06 0)
(0.075789037 2.5668188e-06 0)
(0.075789037 1.435516e-06 0)
(0.075789037 7.5448541e-07 0)
(0.075789037 3.7031842e-07 0)
(0.075789037 1.6856172e-07 0)
(0.075789037 7.0611913e-08 0)
(0.075789037 2.699464e-08 0)
(0.075789037 9.3312342e-09 0)
(0.075789037 2.8869845e-09 0)
(0.075789037 7.9056296e-10 0)
(0.075789037 1.8926731e-10 0)
(0.075789037 3.9083417e-11 0)
(0.075789037 6.8586053e-12 0)
(0.075789037 1.0062703e-12 0)
(0.075789037 1.2123719e-13 0)
(0.075789037 1.1760743e-14 0)
(0.075789037 8.9887471e-16 0)
(0.075789037 5.2855006e-17 0)
(0.075789037 2.3293258e-18 0)
(0.075789037 7.4755497e-20 0)
(0.075789037 1.6927898e-21 0)
(0.075789037 2.6123632e-23 0)
(0.075789037 2.6446636e-25 0)
(0.075789037 1.6842844e-27 0)
(0.075789037 6.4442999e-30 0)
(0.075789037 1.4082756e-32 0)
(0.075789037 1.662735e-35 0)
(0.075789037 9.9787626e-39 0)
(0.075789037 2.8466431e-42 0)
(0.075789037 3.5859951e-46 0)
(0.075789037 1.8398237e-50 0)
(0.075789037 3.5175877e-55 0)
(0.075789037 2.2731697e-60 0)
(0.075789037 4.4605035e-66 0)
(0.075789037 2.36249e-72 0)
(0.075789037 2.9677814e-79 0)
(0.075789037 0.00037751756 0)
(0.075789037 0.00037815204 0)
(0.075789037 0.00037857578 0)
(0.075789037 0.00037875423 0)
(0.075789037 0.00037864927 0)
(0.075789037 0.00037821907 0)
(0.075789037 0.00037741795 0)
(0.075789037 0.00037619637 0)
(0.075789037 0.00037450094 0)
(0.075789037 0.00037227459 0)
(0.075789037 0.00036945688 0)
(0.075789037 0.00036598449 0)
(0.075789037 0.0003617919 0)
(0.075789037 0.00035681236 0)
(0.075789037 0.00035097918 0)
(0.075789037 0.00034422736 0)
(0.075789037 0.00033649558 0)
(0.075789037 0.00032772866 0)
(0.075789037 0.00031788042 0)
(0.075789037 0.00030691698 0)
(0.075789037 0.00029482045 0)
(0.075789037 0.00028159287 0)
(0.075789037 0.00026726036 0)
(0.075789037 0.00025187715 0)
(0.075789037 0.00023552924 0)
(0.075789037 0.00021833741 0)
(0.075789037 0.00020045894 0)
(0.075789037 0.0001820878 0)
(0.075789037 0.00016345256 0)
(0.075789037 0.00014481178 0)
(0.075789037 0.0001264464 0)
(0.075789037 0.00010864915 0)
(0.075789037 9.1711072e-05 0)
(0.075789037 7.5905917e-05 0)
(0.075789037 6.1473497e-05 0)
(0.075789037 4.8603491e-05 0)
(0.075789037 3.7421645e-05 0)
(0.075789037 2.7980314e-05 0)
(0.075789037 2.0255076e-05 0)
(0.075789037 1.4148515e-05 0)
(0.075789037 9.5012626e-06 0)
(0.075789037 6.1091685e-06 0)
(0.075789037 3.7443227e-06 0)
(0.075789037 2.17681e-06 0)
(0.075789037 1.1939221e-06 0)
(0.075789037 6.1412549e-07 0)
(0.075789037 2.9432248e-07 0)
(0.075789037 1.3048214e-07 0)
(0.075789037 5.3089021e-08 0)
(0.075789037 1.9652011e-08 0)
(0.075789037 6.5554808e-09 0)
(0.075789037 1.9499839e-09 0)
(0.075789037 5.1128885e-10 0)
(0.075789037 1.1667877e-10 0)
(0.075789037 2.2852903e-11 0)
(0.075789037 3.7830937e-12 0)
(0.075789037 5.2045162e-13 0)
(0.075789037 5.8409917e-14 0)
(0.075789037 5.239789e-15 0)
(0.075789037 3.6739575e-16 0)
(0.075789037 1.9645255e-17 0)
(0.075789037 7.7971842e-19 0)
(0.075789037 2.2298068e-20 0)
(0.075789037 4.4469672e-22 0)
(0.075789037 5.9668586e-24 0)
(0.075789037 5.1783672e-26 0)
(0.075789037 2.783534e-28 0)
(0.075789037 8.8367656e-31 0)
(0.075789037 1.5724716e-33 0)
(0.075789037 1.4809058e-36 0)
(0.075789037 6.9299955e-40 0)
(0.075789037 1.5035126e-43 0)
(0.075789037 1.4015048e-47 0)
(0.075789037 5.1628155e-52 0)
(0.075789037 6.8564775e-57 0)
(0.075789037 2.9677828e-62 0)
(0.075789037 3.7477025e-68 0)
(0.075789037 1.2225138e-74 0)
(0.075789037 9.0127224e-82 0)
(0.075789037 1.2966543e-89 0)
(0.075789037 0.00037833665 0)
(0.075789037 0.0003787608 0)
(0.075789037 0.00037893089 0)
(0.075789037 0.00037880751 0)
(0.075789037 0.00037834746 0)
(0.075789037 0.00037750363 0)
(0.075789037 0.00037622493 0)
(0.075789037 0.00037445643 0)
(0.075789037 0.00037213947 0)
(0.075789037 0.00036921207 0)
(0.075789037 0.00036560945 0)
(0.075789037 0.00036126476 0)
(0.075789037 0.0003561102 0)
(0.075789037 0.00035007837 0)
(0.075789037 0.00034310399 0)
(0.075789037 0.0003351261 0)
(0.075789037 0.0003260906 0)
(0.075789037 0.00031595331 0)
(0.075789037 0.00030468344 0)
(0.075789037 0.00029226738 0)
(0.075789037 0.0002787128 0)
(0.075789037 0.00026405286 0)
(0.075789037 0.00024835025 0)
(0.075789037 0.00023170078 0)
(0.075789037 0.00021423609 0)
(0.075789037 0.00019612509 0)
(0.075789037 0.00017757356 0)
(0.075789037 0.00015882136 0)
(0.075789037 0.00014013694 0)
(0.075789037 0.00012180878 0)
(0.075789037 0.00010413377 0)
(0.075789037 8.7402843e-05 0)
(0.075789037 7.1884737e-05 0)
(0.075789037 5.7809002e-05 0)
(0.075789037 4.5350107e-05 0)
(0.075789037 3.4614503e-05 0)
(0.075789037 2.5632676e-05 0)
(0.075789037 1.8357767e-05 0)
(0.075789037 1.2671627e-05 0)
(0.075789037 8.3980191e-06 0)
(0.075789037 5.3214811e-06 0)
(0.075789037 3.2091944e-06 0)
(0.075789037 1.8325816e-06 0)
(0.075789037 9.8539377e-07 0)
(0.075789037 4.9587084e-07 0)
(0.075789037 2.3195639e-07 0)
(0.075789037 1.0011455e-07 0)
(0.075789037 3.9545191e-08 0)
(0.075789037 1.4167559e-08 0)
(0.075789037 4.5583984e-09 0)
(0.075789037 1.3029568e-09 0)
(0.075789037 3.2693713e-10 0)
(0.075789037 7.1074898e-11 0)
(0.075789037 1.3195377e-11 0)
(0.075789037 2.0591857e-12 0)
(0.075789037 2.6544195e-13 0)
(0.075789037 2.772851e-14 0)
(0.075789037 2.2984002e-15 0)
(0.075789037 1.4771401e-16 0)
(0.075789037 7.1758934e-18 0)
(0.075789037 2.5624695e-19 0)
(0.075789037 6.5229133e-21 0)
(0.075789037 1.1444058e-22 0)
(0.075789037 1.3334713e-24 0)
(0.075789037 9.9077333e-27 0)
(0.075789037 4.4887961e-29 0)
(0.075789037 1.180628e-31 0)
(0.075789037 1.707982e-34 0)
(0.075789037 1.2808249e-37 0)
(0.075789037 4.6649295e-41 0)
(0.075789037 7.6820267e-45 0)
(0.075789037 5.2874841e-49 0)
(0.075789037 1.3953148e-53 0)
(0.075789037 1.2839939e-58 0)
(0.075789037 3.7126795e-64 0)
(0.075789037 3.0085872e-70 0)
(0.075789037 6.0258652e-77 0)
(0.075789037 2.5985067e-84 0)
(0.075789037 2.0732438e-92 0)
(0.075789037 2.5912193e-101 0)
(0.075789037 0.00037840638 0)
(0.075789037 0.00037856419 0)
(0.075789037 0.00037841912 0)
(0.075789037 0.00037792673 0)
(0.075789037 0.00037703858 0)
(0.075789037 0.00037570224 0)
(0.075789037 0.00037386136 0)
(0.075789037 0.0003714559 0)
(0.075789037 0.00036842254 0)
(0.075789037 0.00036469524 0)
(0.075789037 0.0003602061 0)
(0.075789037 0.0003548865 0)
(0.075789037 0.00034866856 0)
(0.075789037 0.00034148703 0)
(0.075789037 0.00033328153 0)
(0.075789037 0.00032399933 0)
(0.075789037 0.00031359847 0)
(0.075789037 0.00030205142 0)
(0.075789037 0.000289349 0)
(0.075789037 0.00027550455 0)
(0.075789037 0.00026055824 0)
(0.075789037 0.00024458099 0)
(0.075789037 0.00022767805 0)
(0.075789037 0.00020999136 0)
(0.075789037 0.00019170068 0)
(0.075789037 0.00017302253 0)
(0.075789037 0.00015420679 0)
(0.075789037 0.00013553028 0)
(0.075789037 0.00011728732 0)
(0.075789037 9.9777208e-05 0)
(0.075789037 8.3289027e-05 0)
(0.075789037 6.8084905e-05 0)
(0.075789037 5.4382946e-05 0)
(0.075789037 4.2341742e-05 0)
(0.075789037 3.2048479e-05 0)
(0.075789037 2.3512576e-05 0)
(0.075789037 1.6666315e-05 0)
(0.075789037 1.1373035e-05 0)
(0.075789037 7.4422736e-06 0)
(0.075789037 4.6499824e-06 0)
(0.075789037 2.7608906e-06 0)
(0.075789037 1.5496311e-06 0)
(0.075789037 8.1750515e-07 0)
(0.075789037 4.0279847e-07 0)
(0.075789037 1.8407635e-07 0)
(0.075789037 7.7427854e-08 0)
(0.075789037 2.9725586e-08 0)
(0.075789037 1.0319972e-08 0)
(0.075789037 3.2071732e-09 0)
(0.075789037 8.8227447e-10 0)
(0.075789037 2.1221752e-10 0)
(0.075789037 4.4033526e-11 0)
(0.075789037 7.7652649e-12 0)
(0.075789037 1.1450002e-12 0)
(0.075789037 1.3865455e-13 0)
(0.075789037 1.3519869e-14 0)
(0.075789037 1.0387305e-15 0)
(0.075789037 6.140103e-17 0)
(0.075789037 2.7203059e-18 0)
(0.075789037 8.776712e-20 0)
(0.075789037 1.9979559e-21 0)
(0.075789037 3.0995005e-23 0)
(0.075789037 3.1540716e-25 0)
(0.075789037 2.0188862e-27 0)
(0.075789037 7.762512e-30 0)
(0.075789037 1.7043526e-32 0)
(0.075789037 2.0213097e-35 0)
(0.075789037 1.2181258e-38 0)
(0.075789037 3.488135e-42 0)
(0.075789037 4.4088175e-46 0)
(0.075789037 2.2683622e-50 0)
(0.075789037 4.346467e-55 0)
(0.075789037 2.8129708e-60 0)
(0.075789037 5.5232631e-66 0)
(0.075789037 2.9244277e-72 0)
(0.075789037 3.6684284e-79 0)
(0.075789037 9.4572542e-87 0)
(0.075789037 4.2862566e-95 0)
(0.075789037 2.8769776e-104 0)
(0.075789037 2.3688545e-114 0)
(0.075789037 0.00037776457 0)
(0.075789037 0.00037760478 0)
(0.075789037 0.00037708854 0)
(0.075789037 0.00037616625 0)
(0.075789037 0.00037478428 0)
(0.075789037 0.00037288509 0)
(0.075789037 0.00037040743 0)
(0.075789037 0.0003672868 0)
(0.075789037 0.00036345611 0)
(0.075789037 0.00035884656 0)
(0.075789037 0.00035338886 0)
(0.075789037 0.0003470148 0)
(0.075789037 0.00033965924 0)
(0.075789037 0.00033126244 0)
(0.075789037 0.00032177301 0)
(0.075789037 0.00031115112 0)
(0.075789037 0.0002993723 0)
(0.075789037 0.00028643149 0)
(0.075789037 0.00027234728 0)
(0.075789037 0.0002571662 0)
(0.075789037 0.0002409667 0)
(0.075789037 0.00022386246 0)
(0.075789037 0.00020600468 0)
(0.075789037 0.00018758261 0)
(0.075789037 0.00016882214 0)
(0.075789037 0.0001499816 0)
(0.075789037 0.0001313447 0)
(0.075789037 0.00011321012 0)
(0.075789037 9.5878289e-05 0)
(0.075789037 7.9635512e-05 0)
(0.075789037 6.4736853e-05 0)
(0.075789037 5.1389087e-05 0)
(0.075789037 3.9735743e-05 0)
(0.075789037 2.9846262e-05 0)
(0.075789037 2.1711179e-05 0)
(0.075789037 1.5244599e-05 0)
(0.075789037 1.0294292e-05 0)
(0.075789037 6.658458e-06 0)
(0.075789037 4.106961e-06 0)
(0.075789037 2.4039033e-06 0)
(0.075789037 1.3280986e-06 0)
(0.075789037 6.8848524e-07 0)
(0.075789037 3.3272657e-07 0)
(0.075789037 1.4883485e-07 0)
(0.075789037 6.1140944e-08 0)
(0.075789037 2.2867349e-08 0)
(0.075789037 7.713076e-09 0)
(0.075789037 2.3218207e-09 0)
(0.075789037 6.1663605e-10 0)
(0.075789037 1.4267318e-10 0)
(0.075789037 2.8362098e-11 0)
(0.075789037 4.7707639e-12 0)
(0.075789037 6.6773585e-13 0)
(0.075789037 7.6344933e-14 0)
(0.075789037 6.9873555e-15 0)
(0.075789037 5.006447e-16 0)
(0.075789037 2.7403157e-17 0)
(0.075789037 1.1154358e-18 0)
(0.075789037 3.2781269e-20 0)
(0.075789037 6.7334888e-22 0)
(0.075789037 9.32805e-24 0)
(0.075789037 8.3801396e-26 0)
(0.075789037 4.6764301e-28 0)
(0.075789037 1.546067e-30 0)
(0.075789037 2.8748425e-33 0)
(0.075789037 2.8396661e-36 0)
(0.075789037 1.3993915e-39 0)
(0.075789037 3.2114178e-43 0)
(0.075789037 3.1816986e-47 0)
(0.075789037 1.2522976e-51 0)
(0.075789037 1.7871822e-56 0)
(0.075789037 8.3649886e-62 0)
(0.075789037 1.1500912e-67 0)
(0.075789037 4.1152563e-74 0)
(0.075789037 3.3551862e-81 0)
(0.075789037 5.386068e-89 0)
(0.075789037 1.4501365e-97 0)
(0.075789037 5.4907139e-107 0)
(0.075789037 2.4094381e-117 0)
(0.075789037 9.908317e-129 0)
(0.075789037 0.00037645696 0)
(0.075789037 0.00037593383 0)
(0.075789037 0.00037499662 0)
(0.075789037 0.0003735907 0)
(0.075789037 0.00037165746 0)
(0.075789037 0.00036913463 0)
(0.075789037 0.0003659567 0)
(0.075789037 0.00036205566 0)
(0.075789037 0.0003573619 0)
(0.075789037 0.00035180554 0)
(0.075789037 0.00034531804 0)
(0.075789037 0.00033783427 0)
(0.075789037 0.00032929503 0)