# Solver information
# Time            	U_solver          	Ux_initial        	Ux_final          	Ux_iters          	Uy_initial        	Uy_final          	Uy_iters          	U_converged       	p_solver          	p_initial         	p_final           	p_iters           	p_converged       
1.20032577265     	DILUPBiCGStab	1.9052553560e-05	1.7455775400e-10	1	1.1177299020e-04	4.6137594140e-10	2	false	GAMG	1.3069354880e-02	9.9364283580e-05	2	true
1.20071562329     	DILUPBiCGStab	1.9044033170e-05	1.7339778930e-10	1	1.1169582480e-04	4.6146724910e-10	2	false	GAMG	1.3065858630e-02	9.9400927100e-05	2	true
1.20110547337     	DILUPBiCGStab	1.9030438740e-05	1.7438212820e-10	1	1.1169633250e-04	4.6148209580e-10	2	false	GAMG	1.3063798370e-02	9.9329264390e-05	2	true
1.2014953241      	DILUPBiCGStab	1.9021910290e-05	1.7324667760e-10	1	1.1162250540e-04	4.6153819240e-10	2	false	GAMG	1.3060565550e-02	9.9380128920e-05	2	true
1.20188517428     	DILUPBiCGStab	1.9008632290e-05	1.7420543180e-10	1	1.1161185530e-04	4.6158664300e-10	2	false	GAMG	1.3058296020e-02	9.9277025820e-05	2	true
1.20227502512     	DILUPBiCGStab	1.9000354740e-05	1.7309479900e-10	1	1.1152951620e-04	4.6161421980e-10	2	false	GAMG	1.3054872370e-02	9.9311259250e-05	2	true
1.20266487541     	DILUPBiCGStab	1.8987121840e-05	1.7403090460e-10	1	1.1152877860e-04	4.6171451870e-10	2	false	GAMG	1.3052935690e-02	9.9251564860e-05	2	true
1.20305472638     	DILUPBiCGStab	1.8979319070e-05	1.7294425750e-10	1	1.1141134080e-04	4.6170436330e-10	2	false	GAMG	1.3049535170e-02	9.9253622060e-05	2	true
1.2034445768      	DILUPBiCGStab	1.8965511000e-05	1.7385185200e-10	1	1.1144034110e-04	4.6182913860e-10	2	false	GAMG	1.3047154810e-02	9.9193432390e-05	2	true
1.20383442791     	DILUPBiCGStab	1.8956783100e-05	1.7279283420e-10	1	1.1135611310e-04	4.6180099670e-10	2	false	GAMG	1.3043709000e-02	9.9210903510e-05	2	true
1.20422427847     	DILUPBiCGStab	1.8943230750e-05	1.7367749650e-10	1	1.1137290140e-04	4.6196146720e-10	2	false	GAMG	1.3041398440e-02	9.9153474270e-05	2	true
1.20461412973     	DILUPBiCGStab	1.8934473270e-05	1.7263825760e-10	1	1.1127889350e-04	4.6191030170e-10	2	false	GAMG	1.3038233660e-02	9.9178724090e-05	2	true
1.20500398044     	DILUPBiCGStab	1.8920965620e-05	1.7350043190e-10	1	1.1129198720e-04	4.6208231060e-10	2	false	GAMG	1.3035662870e-02	9.9116035180e-05	2	true
1.20539383186     	DILUPBiCGStab	1.8912334130e-05	1.7248581660e-10	1	1.1118813510e-04	4.6202378820e-10	2	false	GAMG	1.3032384100e-02	9.9136687770e-05	2	true
1.20578368274     	DILUPBiCGStab	1.8898847450e-05	1.7331346050e-10	1	1.1120259500e-04	4.6219530820e-10	2	false	GAMG	1.3029671350e-02	9.9076223520e-05	2	true
1.20617353433     	DILUPBiCGStab	1.8890034890e-05	1.7232896250e-10	1	1.1110203710e-04	4.6214795930e-10	2	false	GAMG	1.3026208720e-02	9.9090693970e-05	2	true
1.20656338539     	DILUPBiCGStab	1.8876311430e-05	1.7314181690e-10	1	1.1112511730e-04	4.6231598680e-10	2	false	GAMG	1.3023897110e-02	9.9050465730e-05	2	true
1.20695323717     	DILUPBiCGStab	1.8867654390e-05	1.7217920180e-10	1	1.1100833010e-04	4.6228538730e-10	2	false	GAMG	1.3021185220e-02	9.9072281850e-05	2	true
1.20734308842     	DILUPBiCGStab	1.8854790870e-05	1.7295793900e-10	1	1.1099264500e-04	4.6246501280e-10	2	false	GAMG	1.3018180060e-02	9.9014999330e-05	2	true
1.20773294039     	DILUPBiCGStab	1.8844698490e-05	1.7202714730e-10	1	1.1091735680e-04	4.6241065830e-10	2	false	GAMG	1.3013787480e-02	9.9009351700e-05	2	true
1.20812279185     	DILUPBiCGStab	1.8830876240e-05	1.7278981130e-10	1	1.1093307560e-04	4.6256588380e-10	2	false	GAMG	1.3011932530e-02	9.8974049870e-05	2	true
1.20851264403     	DILUPBiCGStab	1.8821483830e-05	1.7187774000e-10	1	1.1082332120e-04	4.6254543290e-10	2	false	GAMG	1.3009164610e-02	9.8959388990e-05	2	true
1.2089024957      	DILUPBiCGStab	1.8807950950e-05	1.7260862860e-10	1	1.1084661860e-04	4.6272537750e-10	2	false	GAMG	1.3006835860e-02	9.8935035860e-05	2	true
1.2092923481      	DILUPBiCGStab	1.8798226780e-05	1.7172385470e-10	1	1.1074882200e-04	4.6266899430e-10	2	false	GAMG	1.3003684680e-02	9.8926414920e-05	2	true
1.20968219999     	DILUPBiCGStab	1.8784957200e-05	1.7243992260e-10	1	1.1076454340e-04	4.6281671610e-10	2	false	GAMG	1.3002098320e-02	9.8908056420e-05	2	true
1.21007205262     	DILUPBiCGStab	1.8775548610e-05	1.7158114230e-10	1	1.1065944360e-04	4.6284179830e-10	2	false	GAMG	1.2999083990e-02	9.8894414300e-05	2	true
1.21046190476     	DILUPBiCGStab	1.8762543320e-05	1.7226792960e-10	1	1.1067417450e-04	4.6301680490e-10	2	false	GAMG	1.2996616440e-02	9.8880468030e-05	2	true
1.21085175763     	DILUPBiCGStab	1.8752929820e-05	1.7142887470e-10	1	1.1056930420e-04	4.6298269840e-10	2	false	GAMG	1.2993740370e-02	9.8875680270e-05	2	true
1.21124161001     	DILUPBiCGStab	1.8739888440e-05	1.7210044520e-10	1	1.1057686950e-04	4.6310782120e-10	2	false	GAMG	1.2991988160e-02	9.8863955950e-05	2	true
1.21163146313     	DILUPBiCGStab	1.8729693340e-05	1.7127925680e-10	1	1.1048489410e-04	4.6313545550e-10	2	false	GAMG	1.2988760030e-02	9.8834847370e-05	2	true
1.21202131576     	DILUPBiCGStab	1.8716403130e-05	1.7192555400e-10	1	1.1050340280e-04	4.6329213360e-10	2	false	GAMG	1.2986483720e-02	9.8827240390e-05	2	true
1.21241116914     	DILUPBiCGStab	1.8706304460e-05	1.7112721170e-10	1	1.1040318610e-04	4.6328953140e-10	2	false	GAMG	1.2983430590e-02	9.8807070190e-05	2	true
1.21280102205     	DILUPBiCGStab	1.8693107780e-05	1.7176101760e-10	1	1.1041974840e-04	4.6341569310e-10	2	false	GAMG	1.2981408760e-02	9.8798052090e-05	2	true
1.2131908757      	DILUPBiCGStab	1.8683519620e-05	1.7097900570e-10	1	1.1032199420e-04	4.6344647840e-10	2	false	GAMG	1.2978604990e-02	9.8762033760e-05	2	true
1.21358072888     	DILUPBiCGStab	1.8670816310e-05	1.7158246280e-10	1	1.1034821510e-04	4.6360172190e-10	2	false	GAMG	1.2975938380e-02	9.8767244550e-05	2	true
1.21397058281     	DILUPBiCGStab	1.8661256480e-05	1.7082661290e-10	1	1.1025146420e-04	4.6359427570e-10	2	false	GAMG	1.2972421920e-02	9.8726313970e-05	2	true
1.21436043628     	DILUPBiCGStab	1.8648379200e-05	1.7141524380e-10	1	1.1027511730e-04	4.6372471170e-10	2	false	GAMG	1.2970097010e-02	9.8742151970e-05	2	true
1.2147502905      	DILUPBiCGStab	1.8638534100e-05	1.7067688690e-10	1	1.1018377240e-04	4.6374335420e-10	2	false	GAMG	1.2967285030e-02	9.8706938870e-05	2	true
1.21514014425     	DILUPBiCGStab	1.8626020000e-05	1.7123510090e-10	1	1.1019415070e-04	4.6391333900e-10	2	false	GAMG	1.2964465230e-02	9.8713651910e-05	2	true
1.21552999877     	DILUPBiCGStab	1.8616228550e-05	1.7052288670e-10	1	1.1008981740e-04	4.6389216020e-10	2	false	GAMG	1.2961739870e-02	9.8685155660e-05	2	true
1.21591985283     	DILUPBiCGStab	1.8603848750e-05	1.7106934860e-10	1	1.1009175870e-04	4.6405787250e-10	2	false	GAMG	1.2959349720e-02	9.8686274850e-05	2	true
1.21630970765     	DILUPBiCGStab	1.8593828360e-05	1.7037247990e-10	1	1.0999355950e-04	4.6404030100e-10	2	false	GAMG	1.2956476620e-02	9.8643388730e-05	2	true
1.21669956202     	DILUPBiCGStab	1.8581735940e-05	1.7088605190e-10	1	1.1001169120e-04	4.6424727040e-10	2	false	GAMG	1.2954018550e-02	9.8664677460e-05	2	true
1.21708941716     	DILUPBiCGStab	1.8572040100e-05	1.7022242240e-10	1	1.0991371790e-04	4.6419198980e-10	2	false	GAMG	1.2950470850e-02	9.8592956450e-05	2	true
1.21747927184     	DILUPBiCGStab	1.8559642470e-05	1.7072554470e-10	1	1.0994548260e-04	4.6438823540e-10	2	false	GAMG	1.2947983640e-02	9.8630300920e-05	2	true
1.2178691273      	DILUPBiCGStab	1.8550243990e-05	1.7006727430e-10	1	1.0983416200e-04	4.6433059980e-10	2	false	GAMG	1.2945237740e-02	9.8559356200e-05	2	true
1.21825898231     	DILUPBiCGStab	1.8538218580e-05	1.7054837510e-10	1	1.0987031100e-04	4.6460203620e-10	2	false	GAMG	1.2942474950e-02	9.8605855980e-05	2	true
1.2186488381      	DILUPBiCGStab	1.8528789830e-05	1.6992005170e-10	1	1.0975150530e-04	4.6448993600e-10	2	false	GAMG	1.2939545300e-02	9.8529455980e-05	2	true
1.21903869343     	DILUPBiCGStab	1.8516501590e-05	1.7038654070e-10	1	1.0980044700e-04	4.6478038150e-10	2	false	GAMG	1.2937568520e-02	9.8587081190e-05	2	true
1.21942854955     	DILUPBiCGStab	1.8507372740e-05	1.6977300480e-10	1	1.0966569050e-04	4.6465179190e-10	2	false	GAMG	1.2934588420e-02	9.8504745390e-05	2	true
1.21981840523     	DILUPBiCGStab	1.8495426100e-05	1.7020070770e-10	1	1.0970011710e-04	4.6497064240e-10	2	false	GAMG	1.2932416020e-02	9.8558623470e-05	2	true
1.22020826169     	DILUPBiCGStab	1.8485861760e-05	1.6960661280e-10	1	1.0956675900e-04	4.6478912340e-10	2	false	GAMG	1.2929769670e-02	9.8473759140e-05	2	true
1.22059811771     	DILUPBiCGStab	1.8473551690e-05	1.7001791710e-10	1	1.0963323720e-04	4.6513000580e-10	2	false	GAMG	1.2927309220e-02	9.8521941760e-05	2	true
1.22098797452     	DILUPBiCGStab	1.8463937720e-05	1.6945138890e-10	1	1.0949970930e-04	4.6494805660e-10	2	false	GAMG	1.2924946140e-02	9.8458409520e-05	2	true
1.22137783089     	DILUPBiCGStab	1.8451903580e-05	1.6985831280e-10	1	1.0952787520e-04	4.6536975960e-10	2	false	GAMG	1.2923127460e-02	9.8506913780e-05	2	true
1.22176768804     	DILUPBiCGStab	1.8442633610e-05	1.6930508380e-10	1	1.0937752210e-04	4.6511874630e-10	2	false	GAMG	1.2919936330e-02	9.8407060360e-05	2	true
1.22215754477     	DILUPBiCGStab	1.8429597050e-05	1.6966588080e-10	1	1.0944836590e-04	4.6554472720e-10	2	false	GAMG	1.2916950450e-02	9.8465383410e-05	2	true
1.22254740228     	DILUPBiCGStab	1.8419563850e-05	1.6913277270e-10	1	1.0931713540e-04	4.6525687550e-10	2	false	GAMG	1.2913875710e-02	9.8365458070e-05	2	true
1.22293725899     	DILUPBiCGStab	1.8407005180e-05	1.6948056150e-10	1	1.0936440540e-04	4.6571386410e-10	2	false	GAMG	1.2911477620e-02	9.8434294430e-05	2	true
1.22332711602     	DILUPBiCGStab	1.8396816770e-05	1.6896783120e-10	1	1.0923163200e-04	4.6541881060e-10	2	false	GAMG	1.2908371520e-02	9.8329022280e-05	2	true
1.22371697207     	DILUPBiCGStab	1.8384157480e-05	1.6932436000e-10	1	1.0927404200e-04	4.6590804850e-10	2	false	GAMG	1.2906383980e-02	9.8400320390e-05	2	true
1.22410682844     	DILUPBiCGStab	1.8373848700e-05	1.6879310600e-10	1	1.0914061340e-04	4.6558818420e-10	2	false	GAMG	1.2903780090e-02	9.8286929610e-05	2	true
1.22449668382     	DILUPBiCGStab	1.8361005870e-05	1.6915176960e-10	1	1.0918104980e-04	4.6609792690e-10	2	false	GAMG	1.2901657570e-02	9.8369405940e-05	2	true
1.22488653952     	DILUPBiCGStab	1.8350559350e-05	1.6859513940e-10	1	1.0904799350e-04	4.6572281830e-10	2	false	GAMG	1.2898996720e-02	9.8253286290e-05	2	true
1.22527639424     	DILUPBiCGStab	1.8337947290e-05	1.6898846710e-10	1	1.0908817750e-04	4.6626236810e-10	2	false	GAMG	1.2897196180e-02	9.8333881750e-05	2	true
1.22566624926     	DILUPBiCGStab	1.8327959460e-05	1.6840762500e-10	1	1.0895990400e-04	4.6587890830e-10	2	false	GAMG	1.2895001280e-02	9.8231299210e-05	2	true
1.2260561033      	DILUPBiCGStab	1.8316125640e-05	1.6883973580e-10	1	1.0898602960e-04	4.6652051070e-10	2	false	GAMG	1.2893165610e-02	9.8339196730e-05	2	true
1.22644595765     	DILUPBiCGStab	1.8305343500e-05	1.6824345960e-10	1	1.0888131670e-04	4.6606683420e-10	2	false	GAMG	1.2890051740e-02	9.8190672390e-05	2	true
1.226835811       	DILUPBiCGStab	1.8292955620e-05	1.6865498580e-10	1	1.0892523950e-04	4.6669744320e-10	2	false	GAMG	1.2887860020e-02	9.8284091800e-05	2	true
1.22722566466     	DILUPBiCGStab	1.8282593380e-05	1.6805390840e-10	1	1.0880064660e-04	4.6618406940e-10	2	false	GAMG	1.2885285140e-02	9.8156835790e-05	2	true
1.22761551732     	DILUPBiCGStab	1.8270309180e-05	1.6846526790e-10	1	1.0884435490e-04	4.6682182520e-10	2	false	GAMG	1.2883363140e-02	9.8253635330e-05	2	true
1.22800537029     	DILUPBiCGStab	1.8260066600e-05	1.6788241220e-10	1	1.0872684360e-04	4.6632419900e-10	2	false	GAMG	1.2880984030e-02	9.8139144250e-05	2	true
1.22839522226     	DILUPBiCGStab	1.8248494620e-05	1.6828994500e-10	1	1.0876054600e-04	4.6699728290e-10	2	false	GAMG	1.2878929500e-02	9.8255822600e-05	2	true
1.22878507454     	DILUPBiCGStab	1.8238902820e-05	1.6772206310e-10	1	1.0861500520e-04	4.6649193020e-10	2	false	GAMG	1.2876060800e-02	9.8090850010e-05	2	true
1.22917492582     	DILUPBiCGStab	1.8226951240e-05	1.6810038400e-10	1	1.0866655340e-04	4.6717591210e-10	2	false	GAMG	1.2873534970e-02	9.8209242830e-05	2	true
1.2295647774      	DILUPBiCGStab	1.8216791880e-05	1.6754958050e-10	1	1.0854066180e-04	4.6664972750e-10	2	false	GAMG	1.2871137770e-02	9.8071992710e-05	2	true
1.22995462798     	DILUPBiCGStab	1.8205131080e-05	1.6790712970e-10	1	1.0857539520e-04	4.6733575120e-10	2	false	GAMG	1.2869270280e-02	9.8188715780e-05	2	true
1.23034447886     	DILUPBiCGStab	1.8194536980e-05	1.6736344190e-10	1	1.0846439200e-04	4.6671757340e-10	2	false	GAMG	1.2866112750e-02	9.8024767280e-05	2	true
1.23073432875     	DILUPBiCGStab	1.8182479970e-05	1.6770508830e-10	1	1.0851146720e-04	4.6739882810e-10	2	false	GAMG	1.2864026050e-02	9.8155661800e-05	2	true
1.23112417894     	DILUPBiCGStab	1.8172160700e-05	1.6718300450e-10	1	1.0838446830e-04	4.6680420550e-10	2	false	GAMG	1.2861591860e-02	9.7989707390e-05	2	true
1.23151402813     	DILUPBiCGStab	1.8160296200e-05	1.6750627620e-10	1	1.0842447350e-04	4.6751516100e-10	2	false	GAMG	1.2859311980e-02	9.8125417520e-05	2	true
1.23190387762     	DILUPBiCGStab	1.8149901090e-05	1.6700168040e-10	1	1.0831056710e-04	4.6684612790e-10	2	false	GAMG	1.2856460350e-02	9.7958618250e-05	2	true
1.23229372612     	DILUPBiCGStab	1.8138049620e-05	1.6730248920e-10	1	1.0835373880e-04	4.6751837740e-10	2	false	GAMG	1.2853931920e-02	9.8092904040e-05	2	true
1.23268357492     	DILUPBiCGStab	1.8128198910e-05	1.6682346730e-10	1	1.0823363100e-04	4.6696615360e-10	2	false	GAMG	1.2851774570e-02	9.7925621580e-05	2	true
1.23307342272     	DILUPBiCGStab	1.8116848870e-05	1.6710591690e-10	1	1.0827321090e-04	4.6765567850e-10	2	false	GAMG	1.2849422740e-02	9.8062473950e-05	2	true
1.23346327082     	DILUPBiCGStab	1.8106693820e-05	1.6665114020e-10	1	1.0816902010e-04	4.6710937810e-10	2	false	GAMG	1.2846933130e-02	9.7896276250e-05	2	true
1.23385311793     	DILUPBiCGStab	1.8095821270e-05	1.6691896480e-10	1	1.0818379440e-04	4.6776606660e-10	2	false	GAMG	1.2844306860e-02	9.8035332930e-05	2	true
1.23424296534     	DILUPBiCGStab	1.8086111550e-05	1.6647435750e-10	1	1.0806659430e-04	4.6722422040e-10	2	false	GAMG	1.2842201060e-02	9.7848778690e-05	2	true
1.23463281175     	DILUPBiCGStab	1.8074861860e-05	1.6672579390e-10	1	1.0809943170e-04	4.6783718670e-10	2	false	GAMG	1.2839344380e-02	9.7992517180e-05	2	true
1.23502265847     	DILUPBiCGStab	1.8065089570e-05	1.6629170940e-10	1	1.0799115390e-04	4.6721063470e-10	2	false	GAMG	1.2837022290e-02	9.7830205220e-05	2	true
1.23541250419     	DILUPBiCGStab	1.8053943080e-05	1.6653199290e-10	1	1.0800483620e-04	4.6782469240e-10	2	false	GAMG	1.2834263100e-02	9.7970196190e-05	2	true
1.23580235022     	DILUPBiCGStab	1.8044205330e-05	1.6612120880e-10	1	1.0789012320e-04	4.6729138320e-10	2	false	GAMG	1.2832242000e-02	9.7775762120e-05	2	true
1.23619219525     	DILUPBiCGStab	1.8033166640e-05	1.6634201130e-10	1	1.0790502590e-04	4.6795137520e-10	2	false	GAMG	1.2829269110e-02	9.7930538340e-05	2	true
1.23658204059     	DILUPBiCGStab	1.8022894170e-05	1.6593736670e-10	1	1.0780386710e-04	4.6736223100e-10	2	false	GAMG	1.2826860490e-02	9.7731568660e-05	2	true
1.23697188494     	DILUPBiCGStab	1.8011372090e-05	1.6613372600e-10	1	1.0783878930e-04	4.6794337510e-10	2	false	GAMG	1.2823982990e-02	9.7894128030e-05	2	true
1.23736172959     	DILUPBiCGStab	1.8001366730e-05	1.6575489060e-10	1	1.0773485280e-04	4.6736883580e-10	2	false	GAMG	1.2821720830e-02	9.7692993680e-05	2	true
1.23775157326     	DILUPBiCGStab	1.7989937120e-05	1.6594190840e-10	1	1.0775731770e-04	4.6799031080e-10	2	false	GAMG	1.2819201800e-02	9.7860918410e-05	2	true
1.23814141723     	DILUPBiCGStab	1.7979818220e-05	1.6557261390e-10	1	1.0764972870e-04	4.6739757830e-10	2	false	GAMG	1.2816666560e-02	9.7643232590e-05	2	true
1.23853126022     	DILUPBiCGStab	1.7968049450e-05	1.6573635830e-10	1	1.0766897950e-04	4.6793743090e-10	2	false	GAMG	1.2813437150e-02	9.7816435460e-05	2	true
1.23892110351     	DILUPBiCGStab	1.7957698850e-05	1.6538887270e-10	1	1.0756247710e-04	4.6737837550e-10	2	false	GAMG	1.2811423970e-02	9.7605286050e-05	2	true
1.23931094583     	DILUPBiCGStab	1.7946014090e-05	1.6554401240e-10	1	1.0757984950e-04	4.6795894850e-10	2	false	GAMG	1.2808842030e-02	9.7789648580e-05	2	true
1.23970078845     	DILUPBiCGStab	1.7935721430e-05	1.6521162870e-10	1	1.0747441570e-04	4.6739017210e-10	2	false	GAMG	1.2806728890e-02	9.7569036980e-05	2	true
1.24009063009     	DILUPBiCGStab	1.7923925690e-05	1.6533886990e-10	1	1.0749470370e-04	4.6790972940e-10	2	false	GAMG	1.2804074050e-02	9.7763503890e-05	2	true
1.24048047205     	DILUPBiCGStab	1.7913522280e-05	1.6503081940e-10	1	1.0738933110e-04	4.6738713000e-10	2	false	GAMG	1.2802321060e-02	9.7534845550e-05	2	true
1.24087031303     	DILUPBiCGStab	1.7901928500e-05	1.6513783530e-10	1	1.0740503080e-04	4.6785130990e-10	2	false	GAMG	1.2799692430e-02	9.7746683140e-05	2	true
1.24126015432     	DILUPBiCGStab	1.7891109090e-05	1.6483289000e-10	1	1.0732008790e-04	4.6730758970e-10	2	false	GAMG	1.2797495610e-02	9.7525568500e-05	2	true
1.24164999464     	DILUPBiCGStab	1.7880166230e-05	1.6493050850e-10	1	1.0731183930e-04	4.6777254950e-10	2	false	GAMG	1.2794707260e-02	9.7694876470e-05	2	true
1.24203983528     	DILUPBiCGStab	1.7869617120e-05	1.6464292570e-10	1	1.0720994390e-04	4.6726027830e-10	2	false	GAMG	1.2792608190e-02	9.7469878170e-05	2	true
1.24242967495     	DILUPBiCGStab	1.7858139200e-05	1.6473224490e-10	1	1.0720873610e-04	4.6772950370e-10	2	false	GAMG	1.2790170630e-02	9.7680886550e-05	2	true
1.24281951494     	DILUPBiCGStab	1.7847876720e-05	1.6445394360e-10	1	1.0713759850e-04	4.6723112230e-10	2	false	GAMG	1.2787401300e-02	9.7440734000e-05	2	true
1.24320935396     	DILUPBiCGStab	1.7836855870e-05	1.6452721660e-10	1	1.0716529660e-04	4.6764528540e-10	2	false	GAMG	1.2784949180e-02	9.7635329480e-05	2	true
1.24359919331     	DILUPBiCGStab	1.7826907250e-05	1.6425951230e-10	1	1.0703907910e-04	4.6715965530e-10	2	false	GAMG	1.2783452960e-02	9.7415041750e-05	2	true
1.24398903169     	DILUPBiCGStab	1.7815665710e-05	1.6432593010e-10	1	1.0709377600e-04	4.6753986060e-10	2	false	GAMG	1.2780271800e-02	9.7648730210e-05	2	true
1.2443788704      	DILUPBiCGStab	1.7805510620e-05	1.6407018760e-10	1	1.0703353390e-04	4.6707390020e-10	2	false	GAMG	1.2776882590e-02	9.7347296840e-05	2	true
1.24476870815     	DILUPBiCGStab	1.7794072950e-05	1.6412314860e-10	1	1.0708078850e-04	4.6741922430e-10	2	false	GAMG	1.2774221490e-02	9.7574356730e-05	2	true
1.24515854624     	DILUPBiCGStab	1.7783952280e-05	1.6387486900e-10	1	1.0696210600e-04	4.6695814310e-10	2	false	GAMG	1.2772260430e-02	9.7293062400e-05	2	true
1.24554838336     	DILUPBiCGStab	1.7772501450e-05	1.6392398870e-10	1	1.0699187290e-04	4.6727403530e-10	2	false	GAMG	1.2768964160e-02	9.7533913740e-05	2	true
1.24593822083     	DILUPBiCGStab	1.7762422550e-05	1.6368437390e-10	1	1.0687970640e-04	4.6686668200e-10	2	false	GAMG	1.2767004970e-02	9.7266950350e-05	2	true
1.24632805734     	DILUPBiCGStab	1.7751062790e-05	1.6372564800e-10	1	1.0695145410e-04	4.6714639120e-10	2	false	GAMG	1.2763537860e-02	9.7496743230e-05	2	true
1.24671789419     	DILUPBiCGStab	1.7741154700e-05	1.6349267350e-10	1	1.0682874160e-04	4.6674553510e-10	2	false	GAMG	1.2761358050e-02	9.7225227440e-05	2	true
1.24710773009     	DILUPBiCGStab	1.7729799660e-05	1.6353053470e-10	1	1.0688365650e-04	4.6699160010e-10	2	false	GAMG	1.2758378520e-02	9.7458596660e-05	2	true
1.24749756633     	DILUPBiCGStab	1.7719710950e-05	1.6330250580e-10	1	1.0675960410e-04	4.6662959680e-10	2	false	GAMG	1.2756392960e-02	9.7173677880e-05	2	true
1.24788740163     	DILUPBiCGStab	1.7708033100e-05	1.6332972440e-10	1	1.0682095230e-04	4.6684977570e-10	2	false	GAMG	1.2753892280e-02	9.7436911620e-05	2	true
1.24827723728     	DILUPBiCGStab	1.7698705110e-05	1.6310359200e-10	1	1.0667542550e-04	4.6645755870e-10	2	false	GAMG	1.2751608490e-02	9.7158580620e-05	2	true
1.24866707199     	DILUPBiCGStab	1.7687707140e-05	1.6313014760e-10	1	1.0673267510e-04	4.6661300440e-10	2	false	GAMG	1.2748665190e-02	9.7389709560e-05	2	true
1.24905690706     	DILUPBiCGStab	1.7678300850e-05	1.6291042570e-10	1	1.0660080150e-04	4.6629757960e-10	2	false	GAMG	1.2746423560e-02	9.7131876180e-05	2	true
1.24944674119     	DILUPBiCGStab	1.7667650740e-05	1.6293247780e-10	1	1.0664074190e-04	4.6641776000e-10	2	false	GAMG	1.2743178660e-02	9.7362213680e-05	2	true
1.24983657568     	DILUPBiCGStab	1.7658383590e-05	1.6271421180e-10	1	1.0649376540e-04	4.6613904110e-10	2	false	GAMG	1.2741274950e-02	9.7074732470e-05	2	true
1.25022640923     	DILUPBiCGStab	1.7647836080e-05	1.6274115980e-10	1	1.0654317320e-04	4.6622397110e-10	2	false	GAMG	1.2738934920e-02	9.7346186190e-05	2	true
1.25061624316     	DILUPBiCGStab	1.7638569870e-05	1.6252899160e-10	1	1.0642588910e-04	4.6597431560e-10	2	false	GAMG	1.2736213470e-02	9.7054903380e-05	2	true
1.25100607615     	DILUPBiCGStab	1.7627516060e-05	1.6254523100e-10	1	1.0649887140e-04	4.6599258590e-10	2	false	GAMG	1.2733543750e-02	9.7309587110e-05	2	true
1.25139590952     	DILUPBiCGStab	1.7617821140e-05	1.6233396770e-10	1	1.0636790080e-04	4.6578165980e-10	2	false	GAMG	1.2731569010e-02	9.7020653070e-05	2	true
1.25178574197     	DILUPBiCGStab	1.7606915170e-05	1.6235587590e-10	1	1.0644290600e-04	4.6577604400e-10	2	false	GAMG	1.2728791530e-02	9.7288104350e-05	2	true
1.25217557479     	DILUPBiCGStab	1.7597449270e-05	1.6214766070e-10	1	1.0629104730e-04	4.6559248720e-10	2	false	GAMG	1.2726356470e-02	9.6999698890e-05	2	true
1.2525654067      	DILUPBiCGStab	1.7586469930e-05	1.6216047000e-10	1	1.0636214730e-04	4.6554131350e-10	2	false	GAMG	1.2723297950e-02	9.7271270270e-05	2	true
1.25295523899     	DILUPBiCGStab	1.7576979970e-05	1.6195338940e-10	1	1.0620771110e-04	4.6539736130e-10	2	false	GAMG	1.2721215270e-02	9.6981666900e-05	2	true
1.25334507037     	DILUPBiCGStab	1.7566145100e-05	1.6197487760e-10	1	1.0627095820e-04	4.6531928920e-10	2	false	GAMG	1.2718325700e-02	9.7254874850e-05	2	true
1.25373490213     	DILUPBiCGStab	1.7556447150e-05	1.6176682460e-10	1	1.0612658520e-04	4.6518987440e-10	2	false	GAMG	1.2716141270e-02	9.6970867630e-05	2	true
1.25412473299     	DILUPBiCGStab	1.7545479390e-05	1.6178184710e-10	1	1.0618333810e-04	4.6505134030e-10	2	false	GAMG	1.2714703860e-02	9.7296886660e-05	2	true
1.25451456425     	DILUPBiCGStab	1.7536647330e-05	1.6156958260e-10	1	1.0598456960e-04	4.6496032140e-10	2	false	GAMG	1.2713684350e-02	9.7045200540e-05	2	true
1.2549043946      	DILUPBiCGStab	1.7524969480e-05	1.6159523630e-10	1	1.0605694280e-04	4.6479187420e-10	2	false	GAMG	1.2711384970e-02	9.7236259920e-05	2	true
1.25529422536     	DILUPBiCGStab	1.7515273030e-05	1.6138403360e-10	1	1.0593635840e-04	4.6472624620e-10	2	false	GAMG	1.2708527850e-02	9.7016234780e-05	2	true
1.25568405522     	DILUPBiCGStab	1.7503174820e-05	1.6141389020e-10	1	1.0605469320e-04	4.6449389980e-10	2	false	GAMG	1.2705304630e-02	9.7218187310e-05	2	true
1.25607388549     	DILUPBiCGStab	1.7492736910e-05	1.6119414390e-10	1	1.0593246120e-04	4.6446069190e-10	2	false	GAMG	1.2704242820e-02	9.6995034950e-05	2	true
1.25646371487     	DILUPBiCGStab	1.7482129370e-05	1.6123678510e-10	1	1.0595132290e-04	4.6423364860e-10	2	false	GAMG	1.2702842420e-02	9.7375718180e-05	2	true
1.25685354466     	DILUPBiCGStab	1.7471830950e-05	1.6101076630e-10	1	1.0583885440e-04	4.6423453000e-10	2	false	GAMG	1.2700040940e-02	9.7067849590e-05	2	true
1.25724337358     	DILUPBiCGStab	1.7460170950e-05	1.6105876330e-10	1	1.0599294610e-04	4.6391987760e-10	2	false	GAMG	1.2695682130e-02	9.7167165800e-05	2	true
1.25763320291     	DILUPBiCGStab	1.7450547270e-05	1.6082793970e-10	1	1.0584787170e-04	4.6396934040e-10	2	false	GAMG	1.2694089650e-02	9.6885935050e-05	2	true
1.25802303137     	DILUPBiCGStab	1.7439590340e-05	1.6088313030e-10	1	1.0592757460e-04	4.6361023540e-10	2	false	GAMG	1.2691507160e-02	9.7157811380e-05	2	true
1.25841286025     	DILUPBiCGStab	1.7430424220e-05	1.6064725230e-10	1	1.0576969350e-04	4.6369855400e-10	2	false	GAMG	1.2690043650e-02	9.6872153200e-05	2	true
1.25880268827     	DILUPBiCGStab	1.7419675680e-05	1.6069937830e-10	1	1.0584790130e-04	4.6326701540e-10	2	false	GAMG	1.2687539220e-02	9.7142642190e-05	2	true
1.25919251672     	DILUPBiCGStab	1.7410433890e-05	1.6046114690e-10	1	1.0568685940e-04	4.6339601540e-10	2	false	GAMG	1.2685344970e-02	9.6864878780e-05	2	true
1.2595823443      	DILUPBiCGStab	1.7399640960e-05	1.6052524410e-10	1	1.0577066580e-04	4.6291676140e-10	2	false	GAMG	1.2682288990e-02	9.7131256230e-05	2	true
1.25997217233     	DILUPBiCGStab	1.7390298290e-05	1.6027911490e-10	1	1.0560726080e-04	4.6310297710e-10	2	false	GAMG	1.2680837080e-02	9.6856627310e-05	2	true
1.2603619995      	DILUPBiCGStab	1.7379476840e-05	1.6034923380e-10	1	1.0569682130e-04	4.6262888040e-10	2	false	GAMG	1.2678477470e-02	9.7110478640e-05	2	true
1.26075182712     	DILUPBiCGStab	1.7370120500e-05	1.6011190670e-10	1	1.0552771960e-04	4.6283430870e-10	2	false	GAMG	1.2677272570e-02	9.6843569060e-05	2	true
1.26114165389     	DILUPBiCGStab	1.7359371180e-05	1.6017631170e-10	1	1.0561505890e-04	4.6230639680e-10	2	false	GAMG	1.2674577790e-02	9.7122182960e-05	2	true
1.26153148111     	DILUPBiCGStab	1.7350152800e-05	1.5993368570e-10	1	1.0541524800e-04	4.6254440350e-10	2	false	GAMG	1.2673550890e-02	9.6860762190e-05	2	true
1.26192130749     	DILUPBiCGStab	1.7340077050e-05	1.5999529680e-10	1	1.0550851390e-04	4.6190804800e-10	2	false	GAMG	1.2670374070e-02	9.7164503910e-05	2	true
1.26231113433     	DILUPBiCGStab	1.7328874200e-05	1.5975568330e-10	1	1.0540301340e-04	4.6219717210e-10	2	false	GAMG	1.2667159620e-02	9.6831210150e-05	2	true
1.26270096034     	DILUPBiCGStab	1.7318060690e-05	1.5983831130e-10	1	1.0550086930e-04	4.6157041110e-10	2	false	GAMG	1.2664686200e-02	9.7112033520e-05	2	true
1.26309078682     	DILUPBiCGStab	1.7308778830e-05	1.5959352150e-10	1	1.0532951950e-04	4.6191452590e-10	2	false	GAMG	1.2663423500e-02	9.6904147800e-05	2	true
1.26348061247     	DILUPBiCGStab	1.7298933200e-05	1.5965664590e-10	1	1.0538348620e-04	4.6120171400e-10	2	false	GAMG	1.2660835670e-02	9.7224138700e-05	2	true
1.26387043859     	DILUPBiCGStab	1.7287924860e-05	1.5942150990e-10	1	1.0527537930e-04	4.6158844970e-10	2	false	GAMG	1.2657111900e-02	9.6809051490e-05	2	true
1.26426026389     	DILUPBiCGStab	1.7277591740e-05	1.5950086700e-10	1	1.0537319340e-04	4.6083126070e-10	2	false	GAMG	1.2653920520e-02	9.7068800180e-05	2	true
1.26465008968     	DILUPBiCGStab	1.7268380670e-05	1.5925183520e-10	1	1.0521713450e-04	4.6125398110e-10	2	false	GAMG	1.2652053240e-02	9.6804123950e-05	2	true
1.26503991465     	DILUPBiCGStab	1.7258165800e-05	1.5933533890e-10	1	1.0532081070e-04	4.6042599820e-10	2	false	GAMG	1.2648943590e-02	9.7050753840e-05	2	true
1.26542974011     	DILUPBiCGStab	1.7249222720e-05	1.5908425100e-10	1	1.0516167140e-04	4.6091315930e-10	2	false	GAMG	1.2647292090e-02	9.6775092350e-05	2	true
1.26581956478     	DILUPBiCGStab	1.7238740690e-05	1.5918164990e-10	1	1.0527096870e-04	4.6006184490e-10	2	false	GAMG	1.2644078570e-02	9.7043624840e-05	2	true
1.26620938993     	DILUPBiCGStab	1.7229555850e-05	1.5891719860e-10	1	1.0511300870e-04	4.6058638460e-10	2	false	GAMG	1.2642053760e-02	9.6761276940e-05	2	true
1.26659921429     	DILUPBiCGStab	1.7219151230e-05	1.5902200990e-10	1	1.0521321710e-04	4.5965246960e-10	2	false	GAMG	1.2639007590e-02	9.7020222000e-05	2	true
1.26698903915     	DILUPBiCGStab	1.7210084980e-05	1.5875022410e-10	1	1.0504448550e-04	4.6025505330e-10	2	false	GAMG	1.2637885640e-02	9.6763019590e-05	2	true
1.26737886323     	DILUPBiCGStab	1.7199694290e-05	1.5887301710e-10	1	1.0511901920e-04	4.5929960290e-10	2	false	GAMG	1.2634688200e-02	9.6988262450e-05	2	true
1.26776868781     	DILUPBiCGStab	1.7190034890e-05	1.5858596030e-10	1	1.0499551340e-04	4.5991421890e-10	2	false	GAMG	1.2632100540e-02	9.6713694140e-05	2	true
1.26815851162     	DILUPBiCGStab	1.7179478940e-05	1.5872051630e-10	1	1.0509369160e-04	4.5884634070e-10	2	false	GAMG	1.2628572340e-02	9.6959616080e-05	2	true
1.26854833594     	DILUPBiCGStab	1.7169918800e-05	1.5842123060e-10	1	1.0494734480e-04	4.5955536300e-10	2	false	GAMG	1.2627087050e-02	9.6694261920e-05	2	true
1.26893815949     	DILUPBiCGStab	1.7159324780e-05	1.5858087450e-10	1	1.0505107320e-04	4.5849923460e-10	2	false	GAMG	1.2624933930e-02	9.6957522050e-05	2	true
1.26932798356     	DILUPBiCGStab	1.7149006900e-05	1.5826531260e-10	1	1.0494819260e-04	4.5924889210e-10	2	false	GAMG	1.2623657060e-02	9.6757444780e-05	2	true
1.26971780687     	DILUPBiCGStab	1.7139056820e-05	1.5843035130e-10	1	1.0500345310e-04	4.5812667330e-10	2	false	GAMG	1.2619436940e-02	9.6941102100e-05	2	true
1.27010763072     	DILUPBiCGStab	1.7130439730e-05	1.5808492870e-10	1	1.0478507670e-04	4.5890484620e-10	2	false	GAMG	1.2616188890e-02	9.6631481120e-05	2	true
1.27049745381     	DILUPBiCGStab	1.7119983010e-05	1.5828869200e-10	1	1.0488221320e-04	4.5773138070e-10	2	false	GAMG	1.2612828690e-02	9.6850281280e-05	2	true
1.27088727743     	DILUPBiCGStab	1.7110076790e-05	1.5793465140e-10	1	1.0473462060e-04	4.5858140730e-10	2	false	GAMG	1.2610774640e-02	9.6591330230e-05	2	true
1.27127710032     	DILUPBiCGStab	1.7099671000e-05	1.5815901430e-10	1	1.0483082200e-04	4.5737286480e-10	2	false	GAMG	1.2607459780e-02	9.6818614850e-05	2	true
1.27166692374     	DILUPBiCGStab	1.7089648050e-05	1.5777936240e-10	1	1.0468003970e-04	4.5825338620e-10	2	false	GAMG	1.2605509010e-02	9.6557824870e-05	2	true
1.27205674643     	DILUPBiCGStab	1.7079190540e-05	1.5801233470e-10	1	1.0477172550e-04	4.5696568590e-10	2	false	GAMG	1.2602227730e-02	9.6774805420e-05	2	true
1.27244656967     	DILUPBiCGStab	1.7068998640e-05	1.5760936830e-10	1	1.0461703210e-04	4.5791400210e-10	2	false	GAMG	1.2600470870e-02	9.6524132050e-05	2	true
1.27283639219     	DILUPBiCGStab	1.7058809340e-05	1.5788446160e-10	1	1.0470467020e-04	4.5663079140e-10	2	false	GAMG	1.2597763780e-02	9.6757796270e-05	2	true
1.27322621526     	DILUPBiCGStab	1.7049376330e-05	1.5746610250e-10	1	1.0454096400e-04	4.5759726290e-10	2	false	GAMG	1.2595397850e-02	9.6481176600e-05	2	true
1.27361603761     	DILUPBiCGStab	1.7039521560e-05	1.5776159540e-10	1	1.0463846770e-04	4.5622204610e-10	2	false	GAMG	1.2592856630e-02	9.6709668940e-05	2	true