# Solver information
# Time            	U_solver          	Ux_initial        	Ux_final          	Ux_iters          	Uy_initial        	Uy_final          	Uy_iters          	U_converged       	p_solver          	p_initial         	p_final           	p_iters           	p_converged       
0.000106839370662 	DILUPBiCGStab	9.9697089960e-04	4.5100323400e-11	2	3.5586464600e-02	3.7867681010e-11	3	false	GAMG	1.0000000000e+00	7.1955781920e-03	11	true
0.000235046615456 	DILUPBiCGStab	7.3038896640e-02	3.0669986300e-10	2	3.6694184290e-01	4.8302626650e-11	3	false	GAMG	2.8418656740e-01	2.2606320480e-03	8	true
0.000382929937517 	DILUPBiCGStab	9.5783406190e-02	6.5877223860e-10	2	4.0621955360e-01	2.3006553670e-10	3	false	GAMG	3.4677307470e-01	3.1078595580e-03	7	true
0.000559875186741 	DILUPBiCGStab	4.5835503410e-02	2.5949421740e-10	2	1.3680424240e-01	1.1611883550e-10	3	false	GAMG	6.0971107680e-01	5.4667350710e-03	7	true
0.000767457150984 	DILUPBiCGStab	8.9766909480e-03	2.8349634460e-10	2	9.0143364100e-02	8.9676245570e-11	3	false	GAMG	6.8451143160e-01	5.8726888200e-03	5	true
0.00101086765353  	DILUPBiCGStab	5.9062625210e-03	2.8119796280e-10	2	6.0494059780e-02	1.2010396910e-10	3	false	GAMG	4.8821160300e-01	2.9840350500e-03	6	true
0.001293212778    	DILUPBiCGStab	2.5697402210e-03	3.6543747960e-10	2	2.6144654100e-02	1.6272627320e-10	3	false	GAMG	3.8566354530e-01	2.9298912510e-03	5	true
0.00161441018748  	DILUPBiCGStab	1.6748830610e-03	4.7383020250e-10	2	1.7516511320e-02	2.0310553390e-10	3	false	GAMG	2.4996343420e-01	2.3641144050e-03	4	true
0.00197435962163  	DILUPBiCGStab	1.2077170790e-03	6.1458521810e-10	2	1.2453359420e-02	2.6021298510e-10	3	false	GAMG	1.8550991310e-01	1.7966637570e-03	4	true
0.00236169047166  	DILUPBiCGStab	9.4184608190e-04	6.7756626820e-10	2	1.0001991930e-02	2.8777633370e-10	3	false	GAMG	1.1961024970e-01	7.6967998840e-04	5	true
0.00274968767001  	DILUPBiCGStab	7.6498164550e-04	5.4523452770e-10	2	7.8593663530e-03	2.2506248590e-10	3	false	GAMG	6.6194323340e-02	3.5760441210e-04	5	true
0.00313944987186  	DILUPBiCGStab	6.7009981470e-04	4.4315189860e-10	2	6.5425781410e-03	1.7849219120e-10	3	false	GAMG	4.8745103910e-02	2.4703613350e-04	5	true
0.0035314438422   	DILUPBiCGStab	6.0532739040e-04	3.7601892250e-10	2	5.7743827660e-03	1.4970326300e-10	3	false	GAMG	3.5916221950e-02	2.0288102760e-04	5	true
0.00392380859266  	DILUPBiCGStab	5.5487611150e-04	3.1966571550e-10	2	5.2492991050e-03	1.2559637930e-10	3	false	GAMG	2.9143001190e-02	1.6779938700e-04	5	true
0.00431639974214  	DILUPBiCGStab	5.1566488340e-04	2.7499765790e-10	2	4.8542845000e-03	1.0639340540e-10	3	false	GAMG	2.4964638510e-02	1.3305222880e-04	5	true
0.0047096424412   	DILUPBiCGStab	4.8555854590e-04	2.4004567850e-10	2	4.5412917320e-03	9.1924997780e-11	3	false	GAMG	2.2154874730e-02	1.1337770080e-04	5	true
0.0051038146183   	DILUPBiCGStab	4.6108176560e-04	2.1163089460e-10	2	4.2823303650e-03	8.1029626310e-11	3	false	GAMG	1.9763144290e-02	1.9224376880e-04	4	true
0.00549912669112  	DILUPBiCGStab	4.4054169400e-04	1.8831172470e-10	2	4.0743136090e-03	7.2655868670e-11	3	false	GAMG	1.8681392670e-02	1.7340867630e-04	4	true
0.00589575147455  	DILUPBiCGStab	4.2308367920e-04	1.6880160660e-10	2	3.9047471820e-03	6.6123476320e-11	3	false	GAMG	1.7273780870e-02	1.5348926410e-04	4	true
0.0062938324785   	DILUPBiCGStab	4.0885460460e-04	1.5254789940e-10	2	3.7617034880e-03	6.0925746240e-11	3	false	GAMG	1.6943066430e-02	1.4354083730e-04	4	true
0.00669348387352  	DILUPBiCGStab	3.9581592280e-04	1.3884979380e-10	2	3.6419006020e-03	5.6764291350e-11	3	false	GAMG	1.6256003610e-02	1.3538984220e-04	4	true
0.00709479117616  	DILUPBiCGStab	3.8427057260e-04	1.2721709960e-10	2	3.5433012700e-03	5.3317510000e-11	3	false	GAMG	1.6350232290e-02	1.2860204270e-04	4	true
0.00749781260739  	DILUPBiCGStab	3.7399218270e-04	1.1721548550e-10	2	3.4561902360e-03	5.0449069790e-11	3	false	GAMG	1.5846458120e-02	1.2585713710e-04	4	true
0.00790258324563  	DILUPBiCGStab	3.6495044190e-04	1.0895231770e-10	2	3.3854946490e-03	4.7900991260e-11	3	false	GAMG	1.5989430810e-02	1.1915935270e-04	4	true
0.00830911986576  	DILUPBiCGStab	3.5656384280e-04	1.0229318150e-10	2	3.3211378510e-03	4.5650091430e-11	3	false	GAMG	1.6026262580e-02	1.1929833270e-04	4	true
0.00871742572061  	DILUPBiCGStab	3.4860597740e-04	9.7345008480e-11	2	3.2706235840e-03	4.3562796880e-11	3	false	GAMG	1.5994548760e-02	1.1187974680e-04	4	true
0.00912749498616  	DILUPBiCGStab	3.4092255950e-04	9.3882604380e-11	2	3.2236971540e-03	4.1681047000e-11	3	false	GAMG	1.5872309330e-02	1.1211301600e-04	4	true
0.00953910330001  	DILUPBiCGStab	3.3348212090e-04	9.1247688190e-11	2	3.1889306940e-03	3.9772448740e-11	3	false	GAMG	1.5972560410e-02	1.0693075590e-04	4	true
0.00995196540164  	DILUPBiCGStab	3.2622785330e-04	8.9016676790e-11	2	3.1540131960e-03	9.9820033650e-10	2	false	GAMG	1.6164705960e-02	1.0664349480e-04	4	true
0.0103660803307   	DILUPBiCGStab	3.1927725060e-04	8.7160929780e-11	2	3.1280550440e-03	9.4857846180e-10	2	false	GAMG	1.6351489590e-02	1.0518115090e-04	4	true
0.0107814502244   	DILUPBiCGStab	3.1277304680e-04	8.5670042130e-11	2	3.1042228290e-03	9.0817296350e-10	2	false	GAMG	1.6511903450e-02	1.0183219610e-04	4	true
0.0111980787012   	DILUPBiCGStab	3.0654960090e-04	8.4398804160e-11	2	3.0833309550e-03	8.7841224410e-10	2	false	GAMG	1.6648948740e-02	1.0205455470e-04	4	true
0.0116159688882   	DILUPBiCGStab	3.0073713800e-04	8.3238962810e-11	2	3.0727254320e-03	8.5412529970e-10	2	false	GAMG	1.6952352970e-02	9.6895470800e-05	4	true
0.0120351215497   	DILUPBiCGStab	2.9524129130e-04	8.2051855510e-11	2	3.0596598850e-03	8.3222511790e-10	2	false	GAMG	1.7153499860e-02	9.7132664030e-05	4	true
0.0124555327923   	DILUPBiCGStab	2.9008321920e-04	8.0832256730e-11	2	3.0514119460e-03	8.1344108320e-10	2	false	GAMG	1.7437961120e-02	9.1461859930e-05	4	true
0.0128771926911   	DILUPBiCGStab	2.8515757270e-04	7.9535005680e-11	2	3.0408059470e-03	7.9585403360e-10	2	false	GAMG	1.7728825580e-02	9.3193988680e-05	4	true
0.0133000838194   	DILUPBiCGStab	2.8052501040e-04	7.8190224330e-11	2	3.0366268860e-03	7.8034619830e-10	2	false	GAMG	1.8250650250e-02	1.8155579420e-04	3	true
0.0137241814898   	DILUPBiCGStab	2.7595700510e-04	7.6752200220e-11	2	3.0291757120e-03	7.6453387570e-10	2	false	GAMG	1.8601001700e-02	1.8558754150e-04	3	true
0.0141494535667   	DILUPBiCGStab	2.7156689600e-04	7.5204464450e-11	2	3.0302979090e-03	7.4982610480e-10	2	false	GAMG	1.9167689400e-02	1.7295861900e-04	3	true
0.0145758614431   	DILUPBiCGStab	2.6736722630e-04	7.3498612050e-11	2	3.0255641410e-03	7.3440846650e-10	2	false	GAMG	1.9649762010e-02	1.7482697110e-04	3	true
0.0150033613667   	DILUPBiCGStab	2.6336193440e-04	7.1745042060e-11	2	3.0264745300e-03	7.1916749330e-10	2	false	GAMG	2.0134310050e-02	1.6750920640e-04	3	true
0.0154318550666   	DILUPBiCGStab	2.5952085230e-04	6.9822707660e-11	2	3.0262340740e-03	7.0316311510e-10	2	false	GAMG	2.0585489790e-02	1.6868281330e-04	3	true
0.0158613034688   	DILUPBiCGStab	2.5578723520e-04	6.7884610860e-11	2	3.0292733720e-03	6.8713376840e-10	2	false	GAMG	2.1048353490e-02	1.6436233900e-04	3	true
0.0162916812676   	DILUPBiCGStab	2.5222661480e-04	6.5903363780e-11	2	3.0311034160e-03	6.7072575120e-10	2	false	GAMG	2.1657658280e-02	1.6709889670e-04	3	true
0.0167229647373   	DILUPBiCGStab	2.4882440320e-04	6.3987939110e-11	2	3.0351483600e-03	6.5450868900e-10	2	false	GAMG	2.2159988180e-02	1.6100375760e-04	3	true
0.0171551320174   	DILUPBiCGStab	2.4572486070e-04	6.1964611300e-11	2	3.0365892240e-03	6.3782566310e-10	2	false	GAMG	2.2637102120e-02	1.6562159210e-04	3	true
0.0175881634408   	DILUPBiCGStab	2.4260411700e-04	5.9975701680e-11	2	3.0436704040e-03	6.2189638980e-10	2	false	GAMG	2.2863466850e-02	1.5528528870e-04	3	true
0.0180220408305   	DILUPBiCGStab	2.3986203470e-04	5.8030750300e-11	2	3.0498004840e-03	6.0540124230e-10	2	false	GAMG	2.3197123450e-02	1.5759185690e-04	3	true
0.0184567200507   	DILUPBiCGStab	2.3712887620e-04	5.6163491380e-11	2	3.0562930050e-03	5.8884250000e-10	2	false	GAMG	2.3484762240e-02	1.5179322620e-04	3	true
0.01889216048     	DILUPBiCGStab	2.3474150800e-04	5.4293115810e-11	2	3.0610785480e-03	5.7255594860e-10	2	false	GAMG	2.3858370980e-02	1.5786557240e-04	3	true
0.0193283499259   	DILUPBiCGStab	2.3228621050e-04	5.2498407680e-11	2	3.0665561690e-03	5.5559215820e-10	2	false	GAMG	2.4090105100e-02	1.4844773980e-04	3	true
0.0197652802512   	DILUPBiCGStab	2.3028883440e-04	5.0695060620e-11	2	3.0708846990e-03	5.3833992020e-10	2	false	GAMG	2.4423117750e-02	1.5290723380e-04	3	true
0.020202946564    	DILUPBiCGStab	2.2807461190e-04	4.8926958190e-11	2	3.0782016390e-03	5.2324770010e-10	2	false	GAMG	2.4428541740e-02	1.4511775650e-04	3	true
0.0206413466097   	DILUPBiCGStab	2.2634477410e-04	4.7213778920e-11	2	3.0850386180e-03	5.0781678410e-10	2	false	GAMG	2.4615149040e-02	1.5112958680e-04	3	true
0.0210804797045   	DILUPBiCGStab	2.2447221740e-04	4.5609131610e-11	2	3.0936774830e-03	4.9263568370e-10	2	false	GAMG	2.4736631770e-02	1.4621261930e-04	3	true
0.0215203455696   	DILUPBiCGStab	2.2314769820e-04	4.4002255640e-11	2	3.1015756730e-03	4.7870245080e-10	2	false	GAMG	2.4883510240e-02	1.4960534890e-04	3	true
0.0219609431778   	DILUPBiCGStab	2.2164932260e-04	4.2451882740e-11	2	3.1105896360e-03	4.6428753840e-10	2	false	GAMG	2.4869504080e-02	1.4194769470e-04	3	true
0.0224022697225   	DILUPBiCGStab	2.2055683950e-04	9.9005084170e-10	2	3.1180504260e-03	4.5101443250e-10	2	false	GAMG	2.4970421320e-02	1.4847688510e-04	3	true
0.0228443208432   	DILUPBiCGStab	2.1933285340e-04	9.6140307060e-10	2	3.1262572590e-03	4.3673195750e-10	2	false	GAMG	2.5071456400e-02	1.4216873320e-04	3	true
0.0232870896935   	DILUPBiCGStab	2.1857935340e-04	9.3321133860e-10	2	3.1320245010e-03	4.2437192700e-10	2	false	GAMG	2.5252805210e-02	1.4697297050e-04	3	true
0.023730567604    	DILUPBiCGStab	2.1747614140e-04	9.0743592710e-10	2	3.1415273790e-03	4.1170733890e-10	2	false	GAMG	2.5359671560e-02	1.4066805020e-04	3	true
0.0241747431872   	DILUPBiCGStab	2.1677511610e-04	8.8188991210e-10	2	3.1477359310e-03	4.0052210160e-10	2	false	GAMG	2.5665983330e-02	1.4639734280e-04	3	true
0.0246196030555   	DILUPBiCGStab	2.1582361900e-04	8.5746021530e-10	2	3.1564500310e-03	3.8921620890e-10	2	false	GAMG	2.5659413390e-02	1.4210427280e-04	3	true
0.0250651323243   	DILUPBiCGStab	2.1534255180e-04	8.3366584530e-10	2	3.1609950730e-03	3.7729029630e-10	2	false	GAMG	2.5710915710e-02	1.4532122860e-04	3	true
0.0255113147713   	DILUPBiCGStab	2.1453687170e-04	8.1215959310e-10	2	3.1708451690e-03	3.6729922230e-10	2	false	GAMG	2.5648439280e-02	1.4030653790e-04	3	true
0.0259581324564   	DILUPBiCGStab	2.1403386870e-04	7.9059802480e-10	2	3.1753358320e-03	3.5719957020e-10	2	false	GAMG	2.5898176120e-02	1.4488142580e-04	3	true
0.0264055668971   	DILUPBiCGStab	2.1334903530e-04	7.7088215170e-10	2	3.1827565180e-03	3.4868211900e-10	2	false	GAMG	2.6083682260e-02	1.4198510320e-04	3	true
0.0268535990372   	DILUPBiCGStab	2.1291975190e-04	7.5080733750e-10	2	3.1863451810e-03	3.3986061990e-10	2	false	GAMG	2.6331201110e-02	1.4456981580e-04	3	true
0.0273022100431   	DILUPBiCGStab	2.1240302220e-04	7.3371415710e-10	2	3.1931264800e-03	3.3082789360e-10	2	false	GAMG	2.6412822630e-02	1.4088684830e-04	3	true
0.0277513811134   	DILUPBiCGStab	2.1209145520e-04	7.1586209820e-10	2	3.1980217320e-03	3.2211988660e-10	2	false	GAMG	2.6541299630e-02	1.4385469690e-04	3	true
0.0282010938375   	DILUPBiCGStab	2.1173047580e-04	6.9950185170e-10	2	3.2036712010e-03	3.1331269830e-10	2	false	GAMG	2.6744579140e-02	1.3872873780e-04	3	true
0.0286513308223   	DILUPBiCGStab	2.1144701690e-04	6.8308445030e-10	2	3.2089881490e-03	3.0518452950e-10	2	false	GAMG	2.6967753030e-02	1.4422974210e-04	3	true
0.029102075416    	DILUPBiCGStab	2.1115716990e-04	6.6831499040e-10	2	3.2154586610e-03	2.9663824690e-10	2	false	GAMG	2.7364163240e-02	1.4236213000e-04	3	true
0.0295533119752   	DILUPBiCGStab	2.1105157660e-04	6.5286034710e-10	2	3.2161753150e-03	2.8904601720e-10	2	false	GAMG	2.7769008990e-02	1.4326160560e-04	3	true
0.0300050264979   	DILUPBiCGStab	2.1088536610e-04	6.3991179310e-10	2	3.2254953530e-03	2.8236289080e-10	2	false	GAMG	2.8035091790e-02	1.4203035730e-04	3	true
0.0304572058097   	DILUPBiCGStab	2.1076330570e-04	6.2645434210e-10	2	3.2310655250e-03	2.7669637620e-10	2	false	GAMG	2.8004440950e-02	1.4366008220e-04	3	true
0.0309098376651   	DILUPBiCGStab	2.1063688380e-04	6.1432567650e-10	2	3.2385209240e-03	2.6959623800e-10	2	false	GAMG	2.8414177380e-02	1.3942882600e-04	3	true
0.031362911021    	DILUPBiCGStab	2.1058798450e-04	6.0163046790e-10	2	3.2419337910e-03	2.6440856400e-10	2	false	GAMG	2.8677367250e-02	1.4547634020e-04	3	true
0.0318164157332   	DILUPBiCGStab	2.1048449300e-04	5.9017204940e-10	2	3.2489602080e-03	2.5781268580e-10	2	false	GAMG	2.9169039850e-02	1.3837832670e-04	3	true
0.0322703431829   	DILUPBiCGStab	2.1044702230e-04	5.7891218110e-10	2	3.2551427380e-03	2.5316248650e-10	2	false	GAMG	2.9118374350e-02	1.4821931920e-04	3	true
0.0327246851218   	DILUPBiCGStab	2.1042907670e-04	5.6901887610e-10	2	3.2615477220e-03	2.4739526490e-10	2	false	GAMG	2.9353996940e-02	1.4069669980e-04	3	true
0.0331794339951   	DILUPBiCGStab	2.1051377800e-04	5.5830342370e-10	2	3.2609665770e-03	2.4184208600e-10	2	false	GAMG	2.9538776180e-02	1.4962218440e-04	3	true
0.0336345830708   	DILUPBiCGStab	2.1058392510e-04	5.4877745890e-10	2	3.2641542680e-03	2.3585112560e-10	2	false	GAMG	2.9815550500e-02	1.4145711360e-04	3	true
0.0340901258353   	DILUPBiCGStab	2.1068179140e-04	5.3881956750e-10	2	3.2663115300e-03	2.3054594720e-10	2	false	GAMG	3.0173556490e-02	1.5123390120e-04	3	true
0.0345460566006   	DILUPBiCGStab	2.1086486420e-04	5.2993872350e-10	2	3.2694895730e-03	2.2567284530e-10	2	false	GAMG	3.0735134790e-02	1.4572155490e-04	3	true
0.0350023692907   	DILUPBiCGStab	2.1100290100e-04	5.2051239180e-10	2	3.2674326150e-03	2.2149470130e-10	2	false	GAMG	3.1218760370e-02	1.4456609000e-04	3	true
0.0354590593529   	DILUPBiCGStab	2.1108828250e-04	5.1354836160e-10	2	3.2783270540e-03	2.1816411590e-10	2	false	GAMG	3.1234452410e-02	1.4765406790e-04	3	true
0.0359161223295   	DILUPBiCGStab	2.1131483070e-04	5.0496115410e-10	2	3.2779539150e-03	2.1369346400e-10	2	false	GAMG	3.1307535460e-02	1.5059147930e-04	3	true
0.0363735536921   	DILUPBiCGStab	2.1160325870e-04	4.9732662960e-10	2	3.2805137540e-03	2.0870337840e-10	2	false	GAMG	3.1638793550e-02	1.4058842630e-04	3	true
0.0368313493656   	DILUPBiCGStab	2.1170789380e-04	4.9002768910e-10	2	3.2842856600e-03	2.0521882320e-10	2	false	GAMG	3.1809234620e-02	1.5327465600e-04	3	true
0.0372895048931   	DILUPBiCGStab	2.1198800010e-04	4.8301471380e-10	2	3.2866321300e-03	2.0054036130e-10	2	false	GAMG	3.2125365190e-02	1.3979311860e-04	3	true
0.037748016531    	DILUPBiCGStab	2.1223476280e-04	4.7588522740e-10	2	3.2943660000e-03	1.9762076990e-10	2	false	GAMG	3.2176699360e-02	1.5017524320e-04	3	true
0.038206880063    	DILUPBiCGStab	2.1232462660e-04	4.7011065800e-10	2	3.2996807050e-03	1.9397273230e-10	2	false	GAMG	3.2414526110e-02	1.4138109350e-04	3	true
0.0386660911996   	DILUPBiCGStab	2.1263406740e-04	4.6324159490e-10	2	3.3020575070e-03	1.9041779860e-10	2	false	GAMG	3.2743762110e-02	1.4928660400e-04	3	true
0.0391256457189   	DILUPBiCGStab	2.1294122010e-04	4.5700015290e-10	2	3.3024682790e-03	1.8739483700e-10	2	false	GAMG	3.2775050520e-02	1.4080652360e-04	3	true
0.0395855394221   	DILUPBiCGStab	2.1346141900e-04	4.5009384800e-10	2	3.3015984200e-03	1.8426188790e-10	2	false	GAMG	3.3004723530e-02	1.4592110670e-04	3	true
0.0400457683174   	DILUPBiCGStab	2.1374859470e-04	4.4466033020e-10	2	3.3022966840e-03	1.8098931970e-10	2	false	GAMG	3.3320796200e-02	1.3895494060e-04	3	true
0.0405063284413   	DILUPBiCGStab	2.1414864380e-04	4.3804360170e-10	2	3.3013618200e-03	1.7754722920e-10	2	false	GAMG	3.3611327650e-02	1.4457494890e-04	3	true
0.0409672160689   	DILUPBiCGStab	2.1451775660e-04	4.3316595820e-10	2	3.3047864060e-03	1.7458912440e-10	2	false	GAMG	3.3890129930e-02	1.4127863650e-04	3	true
0.0414284274935   	DILUPBiCGStab	2.1482727500e-04	4.2697349480e-10	2	3.3066741460e-03	1.7149329230e-10	2	false	GAMG	3.4151690980e-02	1.4708517910e-04	3	true
0.0418899589613   	DILUPBiCGStab	2.1530197030e-04	4.2282206020e-10	2	3.3063402060e-03	1.6854707340e-10	2	false	GAMG	3.4336688340e-02	1.3880584490e-04	3	true
0.0423518064283   	DILUPBiCGStab	2.1554616180e-04	4.1724502560e-10	2	3.3073534100e-03	1.6583202240e-10	2	false	GAMG	3.4492930860e-02	1.4338154290e-04	3	true
0.0428139660937   	DILUPBiCGStab	2.1595822870e-04	4.1334818880e-10	2	3.3076955820e-03	1.6330199280e-10	2	false	GAMG	3.4533729700e-02	1.4057404180e-04	3	true
0.0432764340578   	DILUPBiCGStab	2.1633947170e-04	4.0760164180e-10	2	3.3089215520e-03	1.6086217120e-10	2	false	GAMG	3.4719971120e-02	1.4268571580e-04	3	true
0.0437392066576   	DILUPBiCGStab	2.1669756660e-04	4.0409657440e-10	2	3.3107091570e-03	1.5891129590e-10	2	false	GAMG	3.4564327710e-02	1.3660446110e-04	3	true
0.0442022801768   	DILUPBiCGStab	2.1701072560e-04	3.9929581380e-10	2	3.3118476890e-03	1.5627228990e-10	2	false	GAMG	3.4454009490e-02	1.4399488930e-04	3	true
0.044665650827    	DILUPBiCGStab	2.1733014670e-04	3.9592351780e-10	2	3.3121744560e-03	1.5427685240e-10	2	false	GAMG	3.4392266640e-02	1.3564165520e-04	3	true
0.0451293146117   	DILUPBiCGStab	2.1769091960e-04	3.9144210840e-10	2	3.3091524720e-03	1.5165295960e-10	2	false	GAMG	3.4398934920e-02	1.4391455620e-04	3	true
0.045593267867    	DILUPBiCGStab	2.1803081130e-04	3.8844241610e-10	2	3.3059456780e-03	1.4949842000e-10	2	false	GAMG	3.4270544060e-02	1.3119693320e-04	3	true
0.0460575070492   	DILUPBiCGStab	2.1839687580e-04	3.8472821560e-10	2	3.3050225690e-03	1.4720489020e-10	2	false	GAMG	3.3928357930e-02	1.4019116520e-04	3	true
0.0465220285611   	DILUPBiCGStab	2.1871583970e-04	3.8305053240e-10	2	3.3042031180e-03	1.4549774310e-10	2	false	GAMG	3.3970728350e-02	1.3051124180e-04	3	true
0.0469868287006   	DILUPBiCGStab	2.1901959480e-04	3.8044636620e-10	2	3.3042513500e-03	1.4301340550e-10	2	false	GAMG	3.3678856300e-02	1.3514715230e-04	3	true
0.047451904399    	DILUPBiCGStab	2.1932888640e-04	3.7922586110e-10	2	3.3048660800e-03	1.4184290900e-10	2	false	GAMG	3.3328718430e-02	1.3428053540e-04	3	true
0.0479172517071   	DILUPBiCGStab	2.1987710990e-04	3.7647690760e-10	2	3.3004237980e-03	1.3971385610e-10	2	false	GAMG	3.2887731400e-02	1.3092176170e-04	3	true
0.0483828675788   	DILUPBiCGStab	2.2024222210e-04	3.7555522690e-10	2	3.3007507300e-03	1.3959503460e-10	2	false	GAMG	3.2164178090e-02	1.2995435950e-04	3	true
0.0488487477101   	DILUPBiCGStab	2.2072216430e-04	3.7363074010e-10	2	3.2983819670e-03	1.3802841870e-10	2	false	GAMG	3.1603490230e-02	1.2816932680e-04	3	true
0.0493148894156   	DILUPBiCGStab	2.2102367950e-04	3.7295263260e-10	2	3.2968260270e-03	1.3782153610e-10	2	false	GAMG	3.0796916730e-02	1.2592986500e-04	3	true
0.04978128908     	DILUPBiCGStab	2.2143661370e-04	3.7087887820e-10	2	3.2963149630e-03	1.3625409360e-10	2	false	GAMG	3.0206438730e-02	1.2717556910e-04	3	true
0.0502479437884   	DILUPBiCGStab	2.2166934580e-04	3.7019101540e-10	2	3.2917269730e-03	1.3565273070e-10	2	false	GAMG	2.9404010980e-02	1.2279125050e-04	3	true
0.0507148500313   	DILUPBiCGStab	2.2212003060e-04	3.6822894180e-10	2	3.2902838260e-03	1.3439380360e-10	2	false	GAMG	2.8680794970e-02	1.2444449030e-04	3	true
0.051182004586    	DILUPBiCGStab	2.2238734870e-04	3.6796686950e-10	2	3.2839631230e-03	1.3384850950e-10	2	false	GAMG	2.8041412020e-02	1.1761330130e-04	3	true
0.0516494041253   	DILUPBiCGStab	2.2282688050e-04	3.6574192730e-10	2	3.2828686630e-03	1.3289851230e-10	2	false	GAMG	2.7502875170e-02	1.2149357570e-04	3	true
0.0521170452221   	DILUPBiCGStab	2.2306808640e-04	3.6554892430e-10	2	3.2746184520e-03	1.3270062080e-10	2	false	GAMG	2.7002694670e-02	1.1499285480e-04	3	true
0.0525849247067   	DILUPBiCGStab	2.2346120470e-04	3.6331992630e-10	2	3.2738088800e-03	1.3193726670e-10	2	false	GAMG	2.6385894980e-02	1.1560657850e-04	3	true
0.0530530398841   	DILUPBiCGStab	2.2366111680e-04	3.6313463570e-10	2	3.2704816740e-03	1.3206062090e-10	2	false	GAMG	2.5858924690e-02	1.1380002500e-04	3	true
0.0535213871525   	DILUPBiCGStab	2.2398535110e-04	3.6096440040e-10	2	3.2660092310e-03	1.3090724390e-10	2	false	GAMG	2.5302046170e-02	1.1270724040e-04	3	true
0.0539899643444   	DILUPBiCGStab	2.2421351290e-04	3.6076275020e-10	2	3.2628892680e-03	1.3123058160e-10	2	false	GAMG	2.4766471070e-02	1.1238576370e-04	3	true
0.0544587683747   	DILUPBiCGStab	2.2466151030e-04	3.5861403030e-10	2	3.2590964360e-03	1.3048614390e-10	2	false	GAMG	2.4145459670e-02	1.1111270630e-04	3	true
0.0549277967276   	DILUPBiCGStab	2.2488250500e-04	3.5895261740e-10	2	3.2555801030e-03	1.3088230780e-10	2	false	GAMG	2.3546600910e-02	1.0800643570e-04	3	true
0.0553970463608   	DILUPBiCGStab	2.2529560870e-04	3.5712104790e-10	2	3.2520058090e-03	1.3002739140e-10	2	false	GAMG	2.2983317690e-02	1.0923139350e-04	3	true
0.0558665145378   	DILUPBiCGStab	2.2551801300e-04	3.5723660860e-10	2	3.2468396730e-03	1.3052986420e-10	2	false	GAMG	2.2456663610e-02	1.0381394050e-04	3	true
0.0563361982647   	DILUPBiCGStab	2.2585918730e-04	3.5463226800e-10	2	3.2420695990e-03	1.2972129710e-10	2	false	GAMG	2.1906150630e-02	1.0679217360e-04	3	true
0.0568060948345   	DILUPBiCGStab	2.2603671690e-04	3.5475886530e-10	2	3.2365363920e-03	1.3054299110e-10	2	false	GAMG	2.1525245270e-02	1.0222866900e-04	3	true
0.0572762014331   	DILUPBiCGStab	2.2634773480e-04	3.5200333390e-10	2	3.2304649840e-03	1.2965082530e-10	2	false	GAMG	2.1055048220e-02	1.0373733490e-04	3	true
0.0577465152493   	DILUPBiCGStab	2.2651150540e-04	3.5196581800e-10	2	3.2241271390e-03	1.3059511330e-10	2	false	GAMG	2.0845979560e-02	1.0057727850e-04	3	true
0.0582170330906   	DILUPBiCGStab	2.2681360450e-04	3.4928239280e-10	2	3.2168685570e-03	1.2977385450e-10	2	false	GAMG	2.0604805730e-02	1.0123103770e-04	3	true
0.0586877535219   	DILUPBiCGStab	2.2693165610e-04	3.4973327590e-10	2	3.2129989370e-03	1.3103369460e-10	2	false	GAMG	2.0231968240e-02	9.9095524920e-05	3	true
0.0591586735576   	DILUPBiCGStab	2.2718735340e-04	3.4708090900e-10	2	3.2055404890e-03	1.3021420160e-10	2	false	GAMG	1.9975017880e-02	1.0022984510e-04	3	true
0.0596297907887   	DILUPBiCGStab	2.2726130270e-04	3.4740179180e-10	2	3.1995516350e-03	1.3127417380e-10	2	false	GAMG	1.9818955670e-02	9.7166002780e-05	3	true
0.0601011029868   	DILUPBiCGStab	2.2743380180e-04	3.4497174560e-10	2	3.1950485460e-03	1.3041674810e-10	2	false	GAMG	1.9574675800e-02	9.8738268850e-05	3	true
0.0605726082253   	DILUPBiCGStab	2.2746324360e-04	3.4518784980e-10	2	3.1888086260e-03	1.3149073850e-10	2	false	GAMG	1.9291237390e-02	9.4547994520e-05	3	true
0.0610443042182   	DILUPBiCGStab	2.2756127930e-04	3.4243926680e-10	2	3.1843579780e-03	1.3063983450e-10	2	false	GAMG	1.9018526230e-02	9.9101652770e-05	3	true
0.0615161886044   	DILUPBiCGStab	2.2768526750e-04	3.4264531930e-10	2	3.1776751160e-03	1.3151579740e-10	2	false	GAMG	1.8750953570e-02	9.4515117790e-05	3	true
0.0619882589658   	DILUPBiCGStab	2.2785452360e-04	3.4010688480e-10	2	3.1716707790e-03	1.3050488920e-10	2	false	GAMG	1.8488975490e-02	9.5184873790e-05	3	true
0.0624605131514   	DILUPBiCGStab	2.2793396740e-04	3.4012264710e-10	2	3.1661134940e-03	1.3145116640e-10	2	false	GAMG	1.8199181220e-02	9.3914308670e-05	3	true
0.0629329487317   	DILUPBiCGStab	2.2812954440e-04	3.3732951550e-10	2	3.1594795540e-03	1.3095647170e-10	2	false	GAMG	1.8042034170e-02	9.4530727420e-05	3	true
0.0634055635693   	DILUPBiCGStab	2.2816541560e-04	3.3734716150e-10	2	3.1527616460e-03	1.3139478580e-10	2	false	GAMG	1.8010286700e-02	9.4568090140e-05	3	true
0.0638783551514   	DILUPBiCGStab	2.2834563480e-04	3.3455788660e-10	2	3.1429690720e-03	1.3077119220e-10	2	false	GAMG	1.7919842720e-02	9.1349958200e-05	3	true
0.0643513218838   	DILUPBiCGStab	2.2832147760e-04	3.3462527710e-10	2	3.1396001530e-03	1.3088126230e-10	2	false	GAMG	1.7747098400e-02	9.2030577540e-05	3	true
0.0648244613898   	DILUPBiCGStab	2.2842863570e-04	3.3195094780e-10	2	3.1311159410e-03	1.2990949700e-10	2	false	GAMG	1.7654596990e-02	9.2511507480e-05	3	true
0.0652977719519   	DILUPBiCGStab	2.2841220140e-04	3.3209935130e-10	2	3.1250579560e-03	1.2940031380e-10	2	false	GAMG	1.7699165210e-02	9.3345119240e-05	3	true
0.0657712512508   	DILUPBiCGStab	2.2851405230e-04	3.2965506530e-10	2	3.1147303180e-03	1.2822451370e-10	2	false	GAMG	1.7672875940e-02	9.0014698720e-05	3	true
0.0662448975066   	DILUPBiCGStab	2.2844950230e-04	3.2951380160e-10	2	3.1093191710e-03	1.2692113680e-10	2	false	GAMG	1.7557405590e-02	8.9977898930e-05	3	true
0.0667187087213   	DILUPBiCGStab	2.2841610470e-04	3.2683537560e-10	2	3.1012509740e-03	1.2562893060e-10	2	false	GAMG	1.7400744850e-02	9.0676802610e-05	3	true
0.0671926833534   	DILUPBiCGStab	2.2831669080e-04	3.2686984310e-10	2	3.0963048140e-03	1.2420307260e-10	2	false	GAMG	1.7262900700e-02	8.9683804540e-05	3	true
0.0676668191318   	DILUPBiCGStab	2.2829854700e-04	3.2438536100e-10	2	3.0871577190e-03	1.2230775320e-10	2	false	GAMG	1.7208133310e-02	9.0945422880e-05	3	true
0.0681411141845   	DILUPBiCGStab	2.2826338830e-04	3.2432413870e-10	2	3.0796572470e-03	1.2013068170e-10	2	false	GAMG	1.7153760720e-02	8.7635686470e-05	3	true
0.0686155666957   	DILUPBiCGStab	2.2823578180e-04	3.2194204770e-10	2	3.0718569420e-03	1.1850761590e-10	2	false	GAMG	1.7027235880e-02	8.8953537990e-05	3	true
0.0690901749243   	DILUPBiCGStab	2.2820732870e-04	3.2190700060e-10	2	3.0641113640e-03	1.1632396500e-10	2	false	GAMG	1.7004825200e-02	8.9182949410e-05	3	true
0.0695649366078   	DILUPBiCGStab	2.2822841320e-04	3.1946584760e-10	2	3.0541852480e-03	1.1434624250e-10	2	false	GAMG	1.6993707430e-02	9.0187687370e-05	3	true
0.0700398502699   	DILUPBiCGStab	2.2820475580e-04	3.1945711260e-10	2	3.0438059340e-03	1.1185138970e-10	2	false	GAMG	1.7019051090e-02	8.9287782170e-05	3	true
0.0705149138717   	DILUPBiCGStab	2.2820329730e-04	3.1734047310e-10	2	3.0344244860e-03	1.1013142260e-10	2	false	GAMG	1.6848301490e-02	8.8168554480e-05	3	true
0.0709901256518   	DILUPBiCGStab	2.2803752760e-04	3.1714523310e-10	2	3.0275988930e-03	1.0800136930e-10	2	false	GAMG	1.6770281120e-02	8.8848544730e-05	3	true
0.0714654836886   	DILUPBiCGStab	2.2800145610e-04	3.1503321630e-10	2	3.0183996900e-03	1.0659431940e-10	2	false	GAMG	1.6754283420e-02	8.9929536320e-05	3	true
0.0719409865626   	DILUPBiCGStab	2.2789450780e-04	3.1490088980e-10	2	3.0082162820e-03	1.0431400140e-10	2	false	GAMG	1.6636127590e-02	8.8454908020e-05	3	true
0.072416631902    	DILUPBiCGStab	2.2783526090e-04	3.1289467290e-10	2	2.9987067430e-03	1.0321612130e-10	2	false	GAMG	1.6595210920e-02	8.7764944210e-05	3	true
0.0728924179939   	DILUPBiCGStab	2.2761109360e-04	3.1254349480e-10	2	2.9900000200e-03	1.0191230500e-10	2	false	GAMG	1.6544791010e-02	8.5416528380e-05	3	true
0.0733683432812   	DILUPBiCGStab	2.2744638870e-04	3.1059868010e-10	2	2.9839678670e-03	1.0220306430e-10	2	false	GAMG	1.6423955570e-02	8.8989463680e-05	3	true
0.0738444063844   	DILUPBiCGStab	2.2725938220e-04	3.1036255060e-10	2	2.9744161700e-03	1.0223069490e-10	2	false	GAMG	1.6321014590e-02	8.8764348460e-05	3	true
0.0743206053767   	DILUPBiCGStab	2.2717745800e-04	3.0857965300e-10	2	2.9652677370e-03	1.0529913810e-10	2	false	GAMG	1.6213303790e-02	8.7875832020e-05	3	true
0.0747969385738   	DILUPBiCGStab	2.2700954290e-04	3.0812094630e-10	2	2.9549166200e-03	1.0925258020e-10	2	false	GAMG	1.6191485320e-02	8.7788437760e-05	3	true
0.0752734039799   	DILUPBiCGStab	2.2694692360e-04	3.0634788830e-10	2	2.9452127960e-03	1.1842507470e-10	2	false	GAMG	1.6165851820e-02	8.6130099500e-05	3	true
0.0757500002198   	DILUPBiCGStab	2.2677876150e-04	3.0573145520e-10	2	2.9361094130e-03	1.2792775110e-10	2	false	GAMG	1.6138559750e-02	8.6805366360e-05	3	true
0.0762267253983   	DILUPBiCGStab	2.2668932170e-04	3.0420906250e-10	2	2.9255201270e-03	1.4427943220e-10	2	false	GAMG	1.6118934640e-02	8.7705637280e-05	3	true
0.0767035735111   	DILUPBiCGStab	2.2652123030e-04	3.0375444680e-10	2	2.9170665910e-03	1.6810333170e-10	2	false	GAMG	1.6009428140e-02	8.6983891660e-05	3	true
0.0771805418005   	DILUPBiCGStab	2.2637536570e-04	3.0251568930e-10	2	2.9071482520e-03	1.9577984740e-10	2	false	GAMG	1.5939753730e-02	8.6535961520e-05	3	true
0.0776576284159   	DILUPBiCGStab	2.2615536050e-04	3.0190980350e-10	2	2.8974699320e-03	2.2064904500e-10	2	false	GAMG	1.5862274000e-02	8.6649840300e-05	3	true
0.0781348318904   	DILUPBiCGStab	2.2596451510e-04	3.0069068620e-10	2	2.8866861310e-03	2.6211243690e-10	2	false	GAMG	1.5816566730e-02	8.6767160390e-05	3	true
0.0786121503255   	DILUPBiCGStab	2.2570879360e-04	3.0003571680e-10	2	2.8762528090e-03	3.1630413300e-10	2	false	GAMG	1.5837600330e-02	8.7687028180e-05	3	true
0.0790895821969   	DILUPBiCGStab	2.2551675370e-04	2.9898302090e-10	2	2.8649579450e-03	3.9512922710e-10	2	false	GAMG	1.5888769470e-02	8.5710912040e-05	3	true
0.0795671260879   	DILUPBiCGStab	2.2527023250e-04	2.9842309670e-10	2	2.8558717840e-03	4.8475136510e-10	2	false	GAMG	1.5865738380e-02	8.6061406560e-05	3	true
0.0800447806717   	DILUPBiCGStab	2.2509521900e-04	2.9766226810e-10	2	2.8447737480e-03	5.8033772990e-10	2	false	GAMG	1.5805828160e-02	8.6261725560e-05	3	true
0.0805225443751   	DILUPBiCGStab	2.2484299300e-04	2.9697153110e-10	2	2.8344327840e-03	7.0981802500e-10	2	false	GAMG	1.5737564310e-02	8.6605456890e-05	3	true
0.0810004163525   	DILUPBiCGStab	2.2465999030e-04	2.9638337330e-10	2	2.8241005410e-03	9.9503370720e-10	2	false	GAMG	1.5691939590e-02	8.6964793630e-05	3	true
0.0814783947676   	DILUPBiCGStab	2.2442363930e-04	2.9577718010e-10	2	2.8127713200e-03	9.1455859040e-12	3	false	GAMG	1.5638224550e-02	8.6381885330e-05	3	true
0.0819564782617   	DILUPBiCGStab	2.2428260160e-04	2.9520108450e-10	2	2.8011633850e-03	9.2900646680e-12	3	false	GAMG	1.5607031630e-02	8.6431638510e-05	3	true
0.082434665478    	DILUPBiCGStab	2.2403693770e-04	2.9457873430e-10	2	2.7902440800e-03	9.0317566870e-12	3	false	GAMG	1.5635422870e-02	8.6747897270e-05	3	true
0.0829129549795   	DILUPBiCGStab	2.2386235300e-04	2.9399161080e-10	2	2.7771968300e-03	9.1647922880e-12	3	false	GAMG	1.5659017950e-02	8.5296564600e-05	3	true
0.0833913452363   	DILUPBiCGStab	2.2356656290e-04	2.9364162700e-10	2	2.7676605560e-03	8.9333476700e-12	3	false	GAMG	1.5587682150e-02	8.5067952700e-05	3	true